<VTKFile type="UnstructuredGrid" version="1.0" byte_order="LittleEndian" header_type="UInt64">
  <UnstructuredGrid>
    <Piece NumberOfPoints="40528" NumberOfCells="18337">
      <CellData Scalars="Scalars_">
        <DataArray type="Float32" Name="Scalars_" format="ascii">
     -86.023758      -86.023758      -86.023758      -86.023758      -86.023758      -86.023758      -86.023758      -86.023758      -86.023758      -86.023758      -86.023758      -86.023758      -86.023758      -86.023758      -86.023758      -86.023758      -86.023758      -86.023758      -86.023758      -86.023758      -86.023758      -86.023758      -86.023758      -86.023758      -86.023758      -86.023758      -86.023758      -86.023758      -86.023758      -86.023758      -86.023758      -86.023758      -86.023758      -86.023758      -86.023758      -86.023758      -86.023758      -86.023758      -86.023758      -86.023758      -86.023758      -86.023758      -86.023758      -86.023758      -86.023758      -86.023758      -86.023758      -86.023758      -86.023758      -86.023758      -86.023758      -86.023758      -86.023758      -86.023758      -86.023758      -86.023758      -86.023758      -86.023758      -86.023758      -86.023758      -86.023758      -86.023758      -86.023758      -86.023758      -86.023758      -86.023758      -86.023758      -86.023758      -86.023758      -86.023758      -86.023758      -86.023758      -86.023758      -86.023758      -86.023758      -86.023758      -86.023758      -86.023758      -86.023758      -86.023758      -86.023758      -86.023758      -86.023758      -86.023758      -86.023758      -86.023758      -86.023758      -86.023758      -86.023758      -86.023758      -86.023758      -86.023758      -86.023758      -86.023758      -86.023758      -86.023758      -86.023758      -86.023758      -86.023758      -86.023758      -86.023758      -86.023758      -86.023758      -86.023758      -86.023758      -86.023758      -86.023758      -86.023758      -86.023758      -86.023758      -86.023758      -86.023758      -86.023758      -86.023758      -86.023758      -86.023758      -86.023758      -86.023758      -86.023758      -86.023758      -86.023758      -86.023758      -86.023758      -86.023758      -86.023758      -86.023758      -86.023758      -86.023758      -86.023758      -86.023758      -86.023758      -86.023758      -86.023758      -86.023758      -86.023758      -86.023758      -86.023758      -86.023758      -86.023758      -86.023758      -86.023758      -86.023758      -86.023758      -86.023758      -86.023758      -86.023758      -86.023758      -86.023758      -86.023758      -86.023758      -86.023758      -86.023758      -86.023758      -86.023758      -86.023758      -86.023758      -86.023758      -86.023758      -86.023758      -86.023758      -86.023758      -86.023758      -86.023758      -86.023758      -86.023758      -86.023758      -86.023758      -86.023758      -86.023758      -86.023758      -86.023758      -86.023758      -86.023758      -86.023758      -86.023758      -86.023758      -86.023758      -86.023758      -86.023758      -86.023758      -86.023758      -86.023758      -86.023758      -86.023758      -86.023758      -86.023758      -86.023758      -86.023758      -86.023758      -86.023758      -86.023758      -86.023758      -86.023758      -86.023758      -86.023758      -86.023758      -86.023758      -86.023758      -86.023758      -86.023758      -86.023758      -86.023758      -86.023758      -86.023758      -86.023758      -86.023758      -86.023758      -86.023758      -86.023758      -86.023758      -86.023758      -86.023758      -86.023758      -86.023758      -86.023758      -86.023758      -86.023758      -86.023758      -86.023758      -86.023758      -86.023758      -86.023758      -86.023758      -86.023758      -86.023758      -86.023758      -86.023758      -86.023758      -86.023758      -86.023758      -86.023758      -86.023758      -86.023758      -86.023758      -86.023758      -86.023758      -86.023758      -86.023758      -86.023758      -86.023758      -86.023758      -86.023758      -86.023758      -86.023758      -86.023758      -86.023758      -86.023758      -86.023758      -86.023758      -86.023758      -86.023758      -86.023758      -86.023758      -86.023758      -86.023758      -86.023758      -86.023758      -86.023758      -86.023758      -86.023758      -86.023758      -86.023758      -86.023758      -86.023758      -86.023758      -86.023758      -86.023758      -86.023758      -86.023758      -86.023758      -86.023758      -86.023758      -86.023758      -86.023758      -86.023758      -86.023758      -86.023758      -86.023758      -86.023758      -86.023758      -86.023758      -86.023758      -86.023758      -86.023758      -86.023758      -86.023758      -86.023758      -86.023758      -86.023758      -86.023758      -86.023758      -86.023758      -86.023758      -86.023758      -86.023758      -86.023758      -86.023758      -86.023758      -86.023758      -86.023758      -86.023758      -86.023758      -86.023758      -86.023758      -86.023758      -86.023758      -86.023758      -86.023758      -86.023758      -86.023758      -86.023758      -86.023758      -86.023758      -86.023758      -86.023758      -86.023758      -86.023758      -86.023758      -86.023758      -86.023758      -86.023758      -86.023758      -86.023758      -86.023758      -86.023758      -86.023758      -86.023758      -86.023758      -86.023758      -86.023758      -86.023758      -86.023758      -86.023758      -86.023758      -86.023758      -86.023758      -86.023758      -86.023758      -86.023758      -86.023758      -86.023758      -86.023758      -86.023758      -86.023758      -86.023758      -86.023758      -86.023758      -86.023758      -86.023758      -86.023758      -86.023758      -86.023758      -86.023758      -86.023758      -86.023758      -86.023758      -86.023758      -86.023758      -86.023758      -86.023758      -86.023758      -86.023758      -86.023758      -86.023758      -86.023758      -86.023758      -86.023758      -86.023758      -86.023758      -86.023758      -86.023758      -86.023758      -86.023758      -86.023758      -86.023758      -86.023758      -86.023758      -86.023758      -86.023758      -86.023758      -86.023758      -86.023758      -86.023758      -86.023758      -86.023758      -86.023758      -86.023758      -86.023758      -86.023758      -86.023758      -86.023758      -86.023758      -86.023758      -86.023758      -86.023758      -86.023758      -86.023758      -86.023758      -86.023758      -86.023758      -86.023758      -86.023758      -86.023758      -86.023758      -86.023758      -86.023758      -86.023758      -86.023758      -86.023758      -86.023758      -86.023758      -86.023758      -86.023758      -86.023758      -86.023758      -86.023758      -86.023758      -86.023758      -86.023758      -86.023758      -86.023758      -86.023758      -86.023758      -86.023758      -86.023758      -86.023758      -86.023758      -86.023758      -86.023758      -86.023758      -86.023758      -86.023758      -86.023758      -86.023758      -86.023758      -86.023758      -86.023758      -86.023758      -86.023758      -86.023758      -86.023758      -86.023758      -86.023758      -86.023758      -86.023758      -86.023758      -86.023758      -86.023758      -86.023758      -86.023758      -86.023758      -86.023758      -86.023758      -86.023758      -86.023758      -86.023758      -86.023758      -86.023758      -86.023758      -86.023758      -86.023758      -86.023758      -86.023758      -86.023758      -86.023758      -86.023758      -86.023758      -86.023758      -86.023758      -86.023758      -86.023758      -86.023758      -86.023758      -86.023758      -86.023758      -86.023758      -86.023758      -86.023758      -86.023758      -86.023758      -86.023758      -86.023758      -86.023758      -86.023758      -86.023758      -86.023758      -86.023758      -86.023758      -86.023758      -86.023758      -86.023758      -86.023758      -86.023758      -86.023758      -86.023758      -86.023758      -86.023758      -86.023758      -86.023758      -86.023758      -86.023758      -86.023758      -86.023758      -86.023758      -86.023758      -86.023758      -86.023758      -86.023758      -86.023758      -86.023758      -86.023758      -86.023758      -86.023758      -86.023758      -86.023758      -86.023758      -86.023758      -86.023758      -86.023758      -86.023758      -86.023758      -86.023758      -86.023758      -86.023758      -86.023758      -86.023758      -86.023758      -86.023758      -86.023758      -86.023758      -86.023758      -86.023758      -86.023758      -86.023758      -86.023758      -86.023758      -86.023758      -86.023758      -86.023758      -86.023758      -86.023758      -86.023758      -86.023758      -86.023758      -86.023758      -86.023758      -86.023758      -86.023758      -86.023758      -86.023758      -86.023758      -86.023758      -86.023758      -86.023758      -86.023758      -86.023758      -86.023758      -86.023758      -86.023758      -86.023758      -86.023758      -86.023758      -86.023758      -86.023758      -86.023758      -86.023758      -86.023758      -86.023758      -86.023758      -86.023758      -86.023758      -86.023758      -86.023758      -86.023758      -86.023758      -86.023758      -86.023758      -86.023758      -86.023758      -86.023758      -86.023758      -86.023758      -86.023758      -86.023758      -86.023758      -86.023758      -86.023758      -86.023758      -86.023758      -86.023758      -86.023758      -86.023758      -86.023758      -86.023758      -86.023758      -86.023758      -86.023758      -86.023758      -86.023758      -86.023758      -86.023758      -86.023758      -86.023758      -86.023758      -86.023758      -86.023758      -86.023758      -86.023758      -86.023758      -86.023758      -86.023758      -86.023758      -86.023758      -86.023758      -86.023758      -86.023758      -86.023758      -86.023758      -86.023758      -86.023758      -86.023758      -86.023758      -86.023758      -86.023758      -86.023758      -86.023758      -86.023758      -86.023758      -86.023758      -86.023758      -86.023758      -86.023758      -86.023758      -86.023758      -86.023758      -86.023758      -86.023758      -86.023758      -86.023758      -86.023758      -86.023758      -86.023758      -86.023758      -86.023758      -86.023758      -86.023758      -86.023758      -86.023758      -86.023758      -86.023758      -86.023758      -86.023758      -86.023758      -86.023758      -86.023758      -86.023758      -86.023758      -86.023758      -86.023758      -86.023758      -86.023758      -86.023758      -86.023758      -86.023758      -86.023758      -86.023758      -86.023758      -86.023758      -86.023758      -86.023758      -86.023758      -86.023758      -86.023758      -86.023758      -86.023758      -86.023758      -86.023758      -86.023758      -86.023758      -86.023758      -86.023758      -86.023758      -86.023758      -86.023758      -86.023758      -86.023758      -86.023758      -86.023758      -86.023758      -86.023758      -86.023758      -86.023758      -86.023758      -86.023758      -86.023758      -86.023758      -86.023758      -86.023758      -86.023758      -86.023758      -86.023758      -86.023758      -86.023758      -86.023758      -86.023758      -86.023758      -86.023758      -86.023758      -86.023758      -86.023758      -86.023758      -86.023758      -86.023758      -86.023758      -86.023758      -86.023758      -86.023758      -86.023758      -86.023758      -86.023758      -86.023758      -86.023758      -86.023758      -86.023758      -86.023758      -86.023758      -86.023758      -86.023758      -86.023758      -86.023758      -86.023758      -86.023758      -86.023758      -86.023758      -86.023758      -86.023758      -86.023758      -86.023758      -86.023758      -86.023758      -86.023758      -86.023758      -86.023758      -86.023758      -86.023758      -86.023758      -86.023758      -86.023758      -86.023758      -86.023758      -86.023758      -86.023758      -86.023758      -86.023758      -86.023758      -86.023758      -86.023758      -86.023758      -86.023758      -86.023758      -86.023758      -86.023758      -86.023758      -86.023758      -86.023758      -86.023758      -86.023758      -86.023758      14.654831      14.526980      14.522401      14.645748      14.940304      11.665074      11.439338      14.919206      14.899132      11.261585      11.123687      14.880479      14.668546      14.662328      14.530830      14.534104      14.536940      14.673788      14.678210      14.539392      14.541557      14.543478      14.685280      14.682000      14.834846      14.823030      10.839276      10.881057      10.939267      14.848327      14.863537      11.018261      -22.889915      -73.427666      -73.184677      -20.738588      -18.721834      -16.854189      -72.755974      -72.960861      -83.304802      -83.268898      -85.464279      -85.471626      -85.479828      -83.344704      -83.388878      -85.488945      -85.499046      -85.510193      -83.491096      -83.437584      -73.689621      -25.142368      -27.477724      -73.970566      -74.270134      -29.858652      -32.262547      -74.588219      -83.613541      -85.535843      -85.522438      -83.549667      -86.003914      -85.923859      -85.926567      -86.004456      -86.019920      -86.022995      -86.022972      -86.019814      -86.019722      -86.022957      -86.022934      -86.019630      -86.002975      -86.003426      -85.921371      -85.919113      -85.917061      -86.002563      -86.002197      -85.915215      -85.913544      -85.912048      -86.001564      -86.001862      -86.019409      -86.019348      -86.022881      -86.022896      -86.022903      -86.019478      -86.019547      -86.022919      -86.023590      -86.023727      -86.023720      -86.023590      -86.023582      -86.023582      -86.023720      -86.023720      -86.023750      -86.023750      -86.023758      -86.023758      -86.023758      -86.023750      -86.023750      -86.023758      -86.023758      -86.023758      -86.023750      -86.023750      -86.023727      -86.023590      -86.023598      -86.023727      -86.023727      -86.023598      -86.023605      -86.023727      -86.023750      -86.023758      -86.023758      -86.023750      -86.023735      -86.023643      -86.023651      -86.023735      -86.023750      -86.023758      -86.023758      -86.023750      -86.023750      -86.023758      -86.023758      -86.023750      -86.023735      -86.023628      -86.023636      -86.023735      -86.023727      -86.023621      -86.023628      -86.023727      -86.023750      -86.023758      -86.023758      -86.023750      -86.023750      -86.023758      -86.023758      -86.023750      -86.023727      -86.023613      -86.023613      -86.023727      -85.932709      -85.929512      -86.005035      -86.005669      -86.020164      -86.020035      -86.023018      -86.023041      -86.023094      -86.023071      -86.020294      -86.020439      -86.007072      -86.006348      -85.936142      -85.939827      -85.947914      -85.943756      -86.007843      -86.008659      -86.020752      -86.020592      -86.023125      -86.023155      -86.023224      -86.023193      -86.020920      -86.021095      -86.010414      -86.009514      -85.952293      -85.956871      -77.363213      -47.803020      -49.725441      -77.854630      -84.342484      -85.687950      -85.664680      -84.228874      -84.121681      -85.642509      -85.621536      -84.021072      -76.462120      -43.747803      -45.816971      -76.899956      -75.653595      -39.344273      -41.588802      -76.047302      -83.927055      -85.601830      -85.583420      -83.839493      -83.758209      -85.566292      -85.550446      -83.682976      -74.924690      -34.660725      -37.027901      -75.279663      14.510072      14.516850      14.634586      14.620800      14.981904      14.961621      11.948494      12.300398      13.262138      12.733381      14.999350      15.011367      14.582544      14.603719      14.501702      14.491308      14.462633      14.478429      14.556419      14.524508      15.003173      15.014319      13.903591      14.676972      16.704031      15.603654      14.970997      14.908372      14.440927      14.486123      14.443613      14.421290      14.175961      14.276292      14.292458      14.287694      11.649361      6.082006      19.016590      12.223846      12.928057      23.342333      23.751173      13.549569      14.171710      14.150323      14.278699      14.292868      14.314623      14.217278      14.273613      14.340787      14.368640      14.395997      14.389297      14.332589      14.636648      14.802541      17.993792      19.469557      21.078533      14.389092      14.034575      22.650076      -57.697926      -80.139153      -79.520302      -55.529438      -53.530209      -51.617893      -78.376892      -78.931992      -84.586708      -84.462036      -85.712166      -85.737091      -85.762451      -84.715187      -84.845619      -85.787903      -85.813042      -85.837471      -85.102249      -84.975594      -80.781036      -60.124977      -62.887321      -81.431786      -82.069298      -66.003860      -69.336540      -82.664764      -85.333870      -85.882790      -85.860817      -85.222588      -86.017059      -85.990685      -85.995102      -86.017944      -86.022575      -86.023521      -86.023483      -86.022400      -86.022217      -86.023445      -86.023407      -86.022034      -86.015190      -86.016136      -85.986061      -85.981270      -85.976364      -86.014229      -86.013252      -85.971413      -85.966476      -85.961609      -86.011337      -86.012291      -86.021461      -86.021271      -86.023262      -86.023300      -86.023331      -86.021652      -86.021843      -86.023369      -86.023682      -86.023743      -86.023743      -86.023674      -86.023666      -86.023659      -86.023735      -86.023735      -86.023750      -86.023750      -86.023758      -86.023758      -86.023758      -86.023750      -86.023750      -86.023758      -86.023758      -86.023758      -86.023758      -86.023750      -86.023743      -86.023689      -86.023697      -86.023743      -86.023743      -86.023705      -86.023705      -86.023750      -86.023758      -86.023758      -86.023758      -86.023758      -86.023758      -86.023743      -86.023750      -86.023758      -86.023758      -86.023758      -86.023758      -86.023758      -86.023758      -86.023758      -86.023758      -86.023758      -86.023750      -86.023735      -86.023743      -86.023750      -86.023750      -86.023727      -86.023735      -86.023750      -86.023758      -86.023758      -86.023758      -86.023758      -86.023758      -86.023758      -86.023758      -86.023758      -86.023750      -86.023712      -86.023720      -86.023750      -86.003311      -85.999298      -86.018799      -86.019608      -86.022911      -86.022751      -86.023552      -86.023582      -86.023643      -86.023613      -86.023064      -86.023209      -86.021141      -86.020393      -86.007217      -86.011162      -86.017715      -86.015076      -86.021828      -86.022369      -86.023445      -86.023338      -86.023666      -86.023689      -86.023712      -86.023705      -86.023529      -86.023598      -86.023125      -86.022797      -86.019669      -86.021729      -85.524635      -84.255157      -84.846123      -85.978928      -86.002571      -85.945946      -85.927505      -85.998268      -85.989372      -85.150902      -83.738853      -85.403633      -84.054329      -76.332352      -77.228951      -84.497818      -85.648529      -85.960869      -85.940796      -85.596642      -85.522461      -85.922340      -85.903244      -85.434196      -83.191147      -72.436386      -74.769379      -83.643768      14.437062      14.339547      14.547400      15.038449      13.011095      11.724977      -16.940847      -35.572750      -52.751881      -46.030022      15.341627      17.963707      17.118658      15.863012      14.604712      14.835921      15.049803      18.789436      20.540056      19.716908      -59.307819      -71.292473      -81.483673      -76.666985      -47.744019      25.524837      20.576921      23.366352      -86.019012      -86.022812      -86.022812      -86.019005      -85.999809      -85.903282      -85.903587      -85.999870      -85.999947      -85.903946      -85.904358      -86.000023      -86.019043      -86.019028      -86.022820      -86.022820      -86.023567      -86.023567      -86.023720      -86.023720      -86.023750      -86.023758      -86.023758      -86.023750      -86.023750      -86.023758      -86.023758      -86.023750      -86.023720      -86.023720      -86.023567      -86.023567      -86.023567      -86.023567      -86.023720      -86.023720      -86.023750      -86.023758      -86.023758      -86.023750      -86.023750      -86.023758      -86.023758      -86.023750      -86.023720      -86.023720      -86.023567      -86.023567      -86.022804      -86.018967      -86.018974      -86.022804      -86.022812      -86.022812      -86.018982      -86.018990      -85.999756      -85.999710      -85.902802      -85.903023      -85.902611      -85.999672      -85.999641      -85.902451      -85.417114      -83.034668      -83.038628      -85.417908      -85.419930      -85.418839      -83.043297      -83.048782      -71.436996      -71.403259      -4.720887      -5.005039      -4.477327      -71.374466      -71.350006      -4.270842      10.789129      10.787064      14.757168      14.756225      14.704868      14.556258      14.556025      14.704549      14.704183      14.555754      14.555441      14.703756      14.759699      10.782524      10.784842      14.758318      14.763260      10.777328      10.780011      14.761336      14.703258      14.555078      14.554655      14.702670      14.701979      14.554165      14.553596      14.701164      14.768134      14.765511      10.774553      10.771817      -6.738061      -71.638725      -71.576469      -6.198005      -5.735432      -5.340683      -71.476540      -71.522736      -83.062729      -83.055214      -85.421211      -85.422714      -85.424454      -83.071472      -83.081612      -85.426476      -85.428818      -83.093323      -83.106789      -85.431511      -85.438126      -85.434593      -83.122215      -83.139816      -71.993690      -71.886902      -8.930880      -9.890648      -8.093181      -71.792870      -71.710503      -7.366078      10.769328      10.767396      14.774732      14.771186      14.700207      14.552935      14.552173      14.699085      14.697782      14.551298      14.550308      14.696281      14.783670      10.767224      10.766477      14.778857      14.795943      10.777914      10.770585      14.789312      14.694580      14.549204      14.547989      14.692674      14.690533      14.546653      14.545164      14.688098      14.812696      14.803700      10.790543      10.810198      -15.141921      -72.569511      -72.401009      -13.595514      -12.212909      -10.982862      -72.114281      -72.249641      -83.182457      -83.159813      -85.442146      -85.446716      -85.451889      -83.208000      -83.236725      -85.457718      -85.910713      -85.909531      -86.001060      -86.001297      -86.019295      -86.022873      -86.022865      -86.019249      -86.019211      -86.022850      -86.022842      -86.019173      -86.000664      -85.907547      -85.908478      -86.000854      -85.906731      -86.000504      -86.000359      -85.906013      -85.905380      -85.904831      -86.000122      -86.000229      -86.019089      -86.019066      -86.022827      -86.022827      -86.022835      -86.019112      -86.019142      -86.022842      -86.023575      -86.023720      -86.023720      -86.023575      -86.023575      -86.023575      -86.023720      -86.023720      -86.023750      -86.023750      -86.023758      -86.023758      -86.023758      -86.023750      -86.023750      -86.023758      -86.023750      -86.023758      -86.023758      -86.023750      -86.023720      -86.023575      -86.023575      -86.023720      -86.023720      -86.023582      -86.023582      -86.023720      -86.023750      -86.023750      -86.023758      -86.023758      -86.023758      -86.023758      -86.023758      -86.023758      -86.023758      -86.023758      -86.023758      -86.023758      -86.023758      -86.023758      -86.023758      -86.023758      -86.023758      -86.023758      -86.023758      -86.023758      -86.023758      -86.023758      -86.023758      -86.023758      -86.023758      -86.023758      -86.023758      -86.023758      -86.023758      -86.023758      -86.023758      -86.023758      -86.023758      -86.023758      -86.023758      -86.023758      -86.023758      -86.023758      -86.023758      -86.023758      -86.023758      -86.023758      -86.023758      -86.023758      -86.023758      -86.023758      -86.023758      -86.023758      -86.023758      -86.023758      -86.023758      -86.023758      -86.023758      -86.023758      -86.023758      -86.023758      -86.023758      -86.023758      -86.023758      -86.023758      -86.023758      -86.023758      -86.023758      -86.023758      -86.023758      -86.023758      -86.023758      -86.023758      -86.023758      -86.023758      -86.023758      -86.023758      -86.023758      -86.023758      -86.023758      -86.023758      -86.023758      -86.023758      -86.023758      -86.023758      -86.023758      -86.023758      -86.023758      -86.023758      -86.023758      -86.023758      -86.023758      -86.023758      -86.023758      -86.023758      -86.023758      -86.023758      -86.023758      -86.023758      -86.023758      -86.023758      -86.023758      -86.023758      -86.023758      -86.023758      -86.023758      -86.023758      -86.023758      -86.023758      -86.023758      -86.023758      -86.023758      -86.023758      -86.023758      -86.023758      -86.023758      -86.023758      -86.023758      -86.023758      -86.023758      -86.023758      -86.023758      -86.023758      -86.023758      -86.023758      -86.023758      -86.023758      -86.023758      -86.023758      -86.023758      -86.023758      -86.023758      -86.023758      -86.023758      -86.023758      -86.023758      -86.023758      -86.023758      -86.023758      -86.023758      -86.023758      -86.023758      -86.023758      -86.023758      -86.023758      -86.023758      -86.023758      -86.023758      -86.023758      -86.023758      -86.023758      -86.023758      -86.023758      -86.023758      -86.023758      -86.023758      -86.023758      -86.023758      -86.023758      -86.023758      -86.023758      -86.023758      -86.023758      -86.023758      -86.023758      -86.023758      -86.023758      -86.023758      -86.023758      -86.023758      -86.023758      -86.023758      -86.023758      -86.023758      -86.023758      -86.023758      -86.023758      -86.023758      -86.023758      -86.023758      -86.023758      -86.023758      -86.023758      -86.023758      -86.023758      -86.023758      -86.023758      -86.023758      -86.023758      -86.023758      -86.023758      -86.023758      -86.023758      -86.023758      -86.023758      -86.023758      -86.023758      -86.023758      -86.023758      -86.023758      -86.023758      -86.023758      -86.023758      -86.023758      -86.023758      -86.023758      -86.023758      -86.023758      -86.023758      -86.023758      -86.023758      -86.023758      -86.023758      -86.023758      -86.023758      -86.023758      -86.023758      -86.023758      -86.023758      -86.023758      -86.023758      -86.023758      -86.023758      -86.023758      -86.023758      -86.023758      -86.023758      -86.023758      -86.023758      -86.023758      -86.023758      -86.023758      -86.023758      -86.023758      -86.023758      -86.023758      -86.023758      -86.023758      -86.023758      -86.023758      -86.023758      -86.023758      -86.023758      -86.023758      -86.023758      -86.023758      -86.023758      -86.023758      -86.023758      -86.023758      -86.023758      -86.023758      -86.023758      -86.023758      -86.023758      -86.023758      -86.023758      -86.023758      -86.023758      -86.023758      -86.023758      -86.023758      -86.023758      -86.023758      -86.023758      -86.023758      -86.023758      -86.023758      -86.023758      -86.023758      -86.023758      -86.023758      -86.023758      -86.023758      -86.023758      -86.023758      -86.023758      -86.023758      -86.023758      -86.023758      -86.023758      -86.023758      -86.023758      -86.023758      -86.023758      -86.023758      -86.023758      -86.023758      -86.023758      -86.023758      -86.023758      -86.023758      -86.023758      -86.023758      -86.023758      -86.023758      -86.023758      -86.023758      -86.023758      -86.023758      -86.023758      -86.023758      -86.023758      -86.023758      -86.023758      -86.023758      -86.023758      -86.023758      -86.023758      -86.023758      -86.023758      -86.023758      -86.023758      -86.023758      -86.023758      -86.023758      -86.023758      -86.023758      -86.023758      -86.023758      -86.023758      -86.023758      -86.023758      -86.023758      -86.023758      -86.023758      -86.023758      -86.023758      -86.023758      -86.023758      -86.023758      -86.023758      -86.023758      -86.023758      -86.023758      -86.023758      -86.023758      -86.023758      -86.023758      -86.023758      -86.023758      -86.023758      -86.023758      -86.023758      -86.023758      -86.023758      -86.023758      -86.023758      -86.023758      -86.023758      -86.0237