<VTKFile type="UnstructuredGrid" version="1.0" byte_order="LittleEndian" header_type="UInt64">
  <UnstructuredGrid>
    <Piece NumberOfPoints="40528" NumberOfCells="18337">
      <CellData Scalars="Scalars_">
        <DataArray type="Float32" Name="Scalars_" format="ascii">
     22.195942      22.195946      22.167309      22.167303      22.119762      22.063589      22.063593      22.119766      22.119774      22.063601      22.063612      22.119787      22.167332      22.167316      22.195955      22.195971      22.195992      22.196016      22.167376      22.167351      22.119806      22.063629      22.063650      22.119829      22.119858      22.063677      22.063707      22.119892      22.167442      22.167406      22.196049      22.196087      22.196133      22.196188      22.167540      22.167486      22.119932      22.063745      22.063791      22.119982      22.120039      22.063845      22.063908      22.120106      22.167669      22.167599      22.196251      22.196323      22.196407      22.196505      22.167845      22.167751      22.120182      22.063980      22.064062      22.120272      22.120373      22.064157      22.064266      22.120487      22.168072      22.167952      22.196613      22.196737      22.196878      22.197035      22.168362      22.168209      22.120619      22.064390      22.064531      22.120766      22.120934      22.064690      22.064869      22.121119      22.168730      22.168535      22.197212      22.197411      22.197632      22.197876      22.169186      22.168945      22.121328      22.065071      22.065296      22.121561      22.121820      22.065546      22.065825      22.122108      22.169748      22.169453      22.198149      22.198448      22.198778      22.199142      22.170433      22.170074      22.122427      22.066135      22.066477      22.122778      22.123165      22.066854      22.067270      22.123589      22.171259      22.170828      22.199543      22.199980      22.200457      22.200975      22.172247      22.171732      22.124054      22.067726      22.068224      22.124561      22.125113      22.068768      22.069361      22.125713      22.173414      22.172806      22.201540      22.202152      22.131512      22.075123      22.076212      22.132601      22.180332      22.209093      22.208000      22.179241      22.178221      22.206978      22.206024      22.177267      22.129541      22.130493      22.074106      22.073158      22.072279      22.128656      22.127834      22.071461      22.070705      22.070005      22.126366      22.127071      22.174784      22.174072      22.202814      22.203531      22.204302      22.175552      22.176380      22.205132      22.078621      22.077377      22.133766      22.135008      22.182735      22.181496      22.210257      22.211494      22.214207      22.212811      22.184055      22.185453      22.137733      22.136330      22.079948      22.081360      22.084450      22.082859      22.139225      22.140804      22.188509      22.186937      22.215687      22.217251      22.220648      22.218904      22.190168      22.191919      22.144241      22.142475      22.086134      22.087915      22.159466      22.103344      22.106005      22.162081      22.209545      22.238144      22.235590      22.206968      22.204502      22.233145      22.230808      22.202147      22.154577      22.156965      22.100803      22.098379      22.096069      22.152300      22.150131      22.093872      22.091782      22.089796      22.146105      22.148066      22.195709      22.193766      22.222485      22.224417      22.226446      22.197752      22.199898      22.228577      22.111696      22.108788      22.164814      22.167669      22.215046      22.212236      22.240808      22.243587      22.249498      22.246483      22.217972      22.221022      22.173752      22.170647      22.114735      22.117905      22.124655      22.121210      22.176985      22.180351      22.227495      22.224194      22.252632      22.255892      22.262793      22.259277      22.230925      22.234489      22.187496      22.183855      22.128242      22.131977      21.466406      21.409264      21.414116      21.471024      21.528069      21.585329      21.581137      21.523670      21.519527      21.577175      21.573435      21.515627      21.457991      21.462067      21.404715      21.400454      21.342955      21.347414      21.290119      21.285450      21.227901      21.170282      21.175417      21.232796      21.238070      21.180977      21.186987      21.243748      21.300510      21.295132      21.352184      21.357286      21.362734      21.368546      21.312439      21.306273      21.249855      21.193480      21.200470      21.256413      21.263447      21.207973      21.215986      21.270985      21.326075      21.319033      21.374737      21.381319      21.436924      21.492655      21.486731      21.430670      21.424799      21.419287      21.475939      21.481167      21.537687      21.532734      21.589766      21.594461      21.599434      21.542944      21.548532      21.604700      21.661301      21.718431      21.713696      21.656321      21.651604      21.647135      21.704924      21.709196      21.767307      21.763203      21.822025      21.825985      21.830139      21.771620      21.776152      21.834494      21.893469      21.889267      21.948973      21.953041      22.013044      22.073042      22.069204      22.009098      22.005316      22.065523      22.061995      22.001694      21.941357      21.881418      21.885252      21.945080      21.934395      21.874262      21.877756      21.937798      21.998224      22.058609      22.055368      21.994905      21.991732      22.052265      22.049295      21.988701      21.928043      21.931145      21.870928      21.867750      21.807962      21.748690      21.752048      21.811224      21.818249      21.814651      21.755581      21.759296      21.700867      21.697014      21.638891      21.642900      21.635092      21.693357      21.689890      21.631496      21.628096      21.686602      21.683487      21.624882      21.621845      21.618982      21.677755      21.680540      21.739605      21.736889      21.796455      21.799110      21.801910      21.742474      21.745501      21.804859      21.864723      21.861843      21.922266      21.925085      21.985804      22.046459      22.043749      21.983042      21.980410      22.041164      22.038700      21.977905      21.917032      21.856504      21.859106      21.919584      21.912310      21.851700      21.854038      21.914608      21.975521      22.036356      22.034126      21.973259      21.971111      22.032009      22.030001      21.969078      21.908072      21.910131      21.849489      21.847399      21.787189      21.727446      21.729603      21.789312      21.793940      21.791561      21.731894      21.734320      21.675125      21.672646      21.613745      21.616283      21.611359      21.670309      21.668114      21.609119      21.550385      21.491838      21.494177      21.552673      21.557720      21.555115      21.496681      21.499355      21.441122      21.438372      21.380127      21.382956      21.377493      21.435804      21.433413      21.375048      21.316689      21.319191      21.260855      21.258297      21.199835      21.141277      21.143944      21.202448      21.205284      21.146847      21.150000      21.208355      21.266611      21.263622      21.321892      21.324800      21.327930      21.331297      21.273319      21.269838      21.211679      21.153423      21.157141      21.215277      21.219166      21.161173      21.165545      21.223366      21.281107      21.277069      21.334913      21.338795      21.396463      21.392733      21.450577      21.454165      21.511955      21.569906      21.566578      21.508503      21.505257      21.563444      21.560493      21.502213      21.444065      21.385990      21.389246      21.447214      21.422258      21.363728      21.365259      21.423777      21.482351      21.541042      21.539549      21.480846      21.479454      21.538166      21.536890      21.478172      21.419571      21.420858      21.362322      21.361031      21.302504      21.303797      21.245243      21.243948      21.185335      21.126637      21.127930      21.186630      21.188053      21.129354      21.130920      21.189611      21.248213      21.246662      21.305210      21.306751      21.308430      21.310253      21.251751      21.249907      21.191319      21.132639      21.134521      21.193184      21.195215      21.136580      21.138826      21.197430      21.255936      21.253757      21.312231      21.314373      21.372776      21.431187      21.429119      21.370670      21.368721      21.366920      21.425421      21.427198      21.485735      21.483980      21.542654      21.544386      21.546249      21.487625      21.489658      21.548246      21.607019      21.666050      21.664116      21.605055      21.603220      21.601507      21.660614      21.662306      21.721722      21.720049      21.779884      21.781542      21.783310      21.723511      21.725416      21.785191      21.845427      21.843569      21.904287      21.906124      21.967154      22.028097      22.026299      21.965336      21.963621      22.024599      22.022997      21.962006      21.900928      21.840178      21.841820      21.902555      21.897966      21.837196      21.838638      21.899399      21.960487      22.021488      22.020069      21.959063      21.957726      22.018738      22.017492      21.956476      21.895372      21.896626      21.835850      21.834595      21.774271      21.714401      21.715664      21.775530      21.778334      21.776884      21.717024      21.718483      21.659035      21.657564      21.598433      21.599915      21.597057      21.656199      21.654930      21.595785      21.594608      21.653757      21.652672      21.593525      21.592527      21.591612      21.650751      21.651670      21.711140      21.710217      21.770079      21.771008      21.772013      21.712143      21.713228      21.773100      21.833424      21.832336      21.893116      21.894203      21.955309      22.016325      22.015236      21.954220      21.953209      22.014221      22.013279      21.952269      21.891169      21.830397      21.831329      21.892105      21.889503      21.828743      21.829536      21.890303      21.951397      22.012403      22.011591      21.950592      21.949848      22.010841      22.010149      21.949163      21.888090      21.888767      21.828012      21.827345      21.767054      21.707218      21.707870      21.767715      21.769224      21.768436      21.708586      21.709366      21.649906      21.649134      21.590006      21.590773      21.589310      21.648426      21.647783      21.588675      21.529818      21.471144      21.471758      21.530443      21.531891      21.531132      21.472439      21.473188      21.414604      21.413864      21.355354      21.356085      21.354694      21.413195      21.412590      21.354103      21.295637      21.296217      21.237719      21.237152      21.178617      21.120005      21.120543      21.179169      21.179790      21.121151      21.121834      21.180489      21.239063      21.238354      21.296864      21.297585      21.298384      21.299271      21.240728      21.239853      21.181267      21.122601      21.123455      21.182133      21.183096      21.124409      21.125467      21.184160      21.242769      21.241699      21.300247      21.301323      21.359850      21.358770      21.417311      21.418390      21.476994      21.535711      21.534628      21.475910      21.474918      21.533632      21.532722      21.474012      21.415422      21.356895      21.357788      21.416323      20.225916      20.164581      20.165417      20.226768      20.287930      20.348904      20.348021      20.287062      20.286322      20.347263      20.346621      20.285698      20.224586      20.225195      20.163877      20.163286      20.162796      20.224079      20.223660      20.162394      20.162066      20.161806      20.223042      20.223318      20.284376      20.284084      20.344936      20.345245      20.345623      20.284735      20.285172      20.346077      20.406796      20.467331      20.466837      20.406322      20.405928      20.405602      20.466078      20.466423      20.526733      20.526371      20.586479      20.586861      20.587315      20.527166      20.527679      20.587847      20.588469      20.589188      20.528982      20.528282      20.467913      20.407358      20.408020      20.468594      20.469387      20.408794      20.409695      20.470304      20.530729      20.590971      20.590017      20.529795      20.709919      20.650059      20.651026      20.710901      20.770599      20.830124      20.829117      20.769604      20.768724      20.828224      20.827435      20.767952      20.708300      20.709055      20.649212      20.648474      20.647833      20.707642      20.707071      20.647282      20.646809      20.646408      20.706161      20.706581      20.766178      20.765741      20.825155      20.825609      20.826138      20.766687      20.767277      20.826742      20.886047      20.945198      20.944559      20.885426      20.884880      20.884407      20.943508      20.943998      21.002974      21.002466      21.061295      21.061817      21.062408      21.003550      21.004206      21.063078      21.063831      21.064674      21.005775      21.004944      20.945923      20.886757      20.887560      20.946739      20.947659      20.888466      20.889484      20.948689      21.007746      21.066668      21.065619      21.006706      20.959911      20.900728      20.903088      20.962248      21.021252      21.080107      21.077827      21.018942      21.016840      21.075747      21.073849      21.014927      20.955864      20.896650      20.898588      20.957790      20.952543      20.893322      20.894901      20.954121      21.013189      21.072119      21.070547      21.011614      21.010191      21.069122      21.067833      21.008904      20.949839      20.890627      20.891901      20.951120      20.653374      20.652126      20.712013      20.713270      20.772985      20.771723      20.831257      20.832525      20.835524      20.833944      20.774401      20.775982      20.716265      20.714682      20.654779      20.656363      20.660118      20.658136      20.718033      20.720005      20.779705      20.777744      20.837280      20.839230      20.843771      20.841387      20.781881      20.784294      20.724640      20.722200      20.662329      20.664789      20.481573      20.420980      20.423553      20.484098      20.544493      20.604734      20.602259      20.542000      20.539764      20.600037      20.598047      20.537769      20.477308      20.416668      20.418694      20.479317      20.473955      20.413311      20.414881      20.475527      20.535992      20.596272      20.594692      20.534416      20.533026      20.593292      20.592056      20.531801      20.471361      20.410736      20.411936      20.472572      20.167559      20.166403      20.227768      20.228935      20.290119      20.288942      20.349930      20.351118      20.354057      20.352486      20.291481      20.293053      20.231865      20.230291      20.168907      20.170477      20.174414      20.172300      20.233681      20.235777      20.296930      20.294859      20.355852      20.357901      20.362860      20.360226      20.299299      20.302000      20.240963      20.238190      20.176861      20.179697      20.274612      20.216885      20.225494      20.281792      20.339375      20.398277      20.392214      20.333054      20.327169      20.386683      20.381634      20.321772      20.262033      20.268011      20.209137      20.202309      20.196363      20.256689      20.251955      20.191225      20.186796      20.182983      20.244146      20.247791      20.308554      20.305073      20.365831      20.369167      20.372898      20.312477      20.316877      20.377047      20.437115      20.497265      20.493479      20.433199      20.429644      20.426434      20.486912      20.490032      20.550329      20.547264      20.607485      20.610537      20.613914      20.553711      20.557423      20.617653      20.621794      20.626389      20.565893      20.561481      20.501406      20.441395      20.446033      20.505919      20.510822      20.451006      20.456251      20.516163      20.575737      20.637272      20.631512      20.570656      20.751110      20.691761      20.697702      20.756773      20.815285      20.873844      20.868790      20.809988      20.805157      20.864149      20.859903      20.800766      20.741467      20.746029      20.686514      20.681849      20.677675      20.737366      20.733673      20.673929      20.670559      20.667524      20.727346      20.730347      20.789917      20.786963      20.846405      20.849310      20.852510      20.793180      20.796785      20.856033      20.915152      20.974113      20.970724      20.911695      20.908550      20.905689      20.964813      20.967632      21.026554      21.023783      21.082598      21.085320      21.088287      21.029587      21.032902      21.091522      21.095047      21.098885      21.040478      21.036524      20.977825      20.918941      20.923096      20.981888      20.986334      20.927641      20.932613      20.991201      21.049517      21.107611      21.103062      21.044798      21.043007      20.987047      21.002010      21.054077      21.107790      21.161924      21.153011      21.098019      21.089031      21.144787      21.137209      21.080816      21.024025      20.965950      20.975464      21.032982      21.008862      20.950531      20.957775      21.016029      21.073332      21.130238      21.123835      21.066525      21.060328      21.117958      21.112562      21.054676      20.996536      20.938049      20.943996      21.002398      20.712271      20.704481      20.763075      20.770067      20.827311      20.821062      20.879314      20.885185      20.897877      20.891405      20.833988      20.841002      20.786194      20.777779      20.721273      20.731710      20.757805      20.743818      20.795233      20.804689      20.855305      20.848190      20.904409      20.910685      20.919798      20.916143      20.862009      20.867924      20.822678      20.814150      20.775507      20.800165      20.578720      20.549313      20.557560      20.664089      20.698536      20.655588      20.651167      20.693977      20.686769      20.559057      20.544069      20.572313      20.536324      20.471800      20.475166      20.545940      20.594570      20.671995      20.660618      20.591177      20.586348      20.651470      20.643835      20.581041      20.522030      20.461655      20.466990      20.528618      20.244255      20.234760      20.289454      20.297480      20.352884      20.346041      20.404968      20.412502      20.432514      20.421352      20.359594      20.365595      20.314386      20.305777      20.253263      20.260809      20.265577      20.323675      20.334635      20.369755      20.448025      20.475924      20.521523      20.496008      20.419977      20.343519      20.344934      20.323551      20.763916      20.823170      20.823149      20.763906      20.704494      20.644907      20.644899      20.704494      20.704508      20.644903      20.644924      20.704540      20.763983      20.763941      20.823204      20.823257      20.882374      20.882309      20.941261      20.941338      21.000162      21.058855      21.058756      21.000072      21.000006      21.058676      21.058615      20.999954      20.941164      20.941204      20.882263      20.882233      20.882217      20.882212      20.941126      20.941139      20.999920      21.058571      21.058538      20.999897      20.999886      21.058519      21.058508      20.999882      20.941126      20.941122      20.882217      20.882229      20.823179      20.763968      20.763941      20.823158      20.823143      20.823147      20.763920      20.763908      20.704504      20.704525      20.644955      20.644926      20.644989      20.704552      20.704584      20.645027      20.585289      20.525362      20.525312      20.585243      20.585169      20.585203      20.525267      20.525227      20.465094      20.465141      20.404821      20.404770      20.404879      20.465193      20.465246      20.404936      20.344429      20.344366      20.283655      20.283720      20.222809      20.161688      20.161615      20.222738      20.222672      20.161545      20.161474      20.222605      20.283527      20.344248      20.344305      20.283590      20.283419      20.344149      20.344194      20.283470      20.222542      20.161409      20.161348      20.222486      20.222437      20.161293      20.161247      20.222397      20.283340      20.283375      20.344112      20.344086      20.404633      20.464989      20.464998      20.404652      20.404682      20.404722      20.465054      20.465019      20.525166      20.525192      20.585142      20.585125      20.585119      20.525152      20.525152      20.585129      20.585155      20.525167      20.525204      20.585203      20.585377      20.585276      20.525263      20.525351      20.465139      20.465065      20.404680      20.404741      20.404644      20.465019      20.464994      20.404631      20.344072      20.344078      20.283316      20.283321      20.222368      20.161215      20.161194      20.222357      20.222363      20.161194      20.161213      20.222391      20.283369      20.344152      20.344103      20.283331      20.283535      20.344341      20.344231      20.283436      20.222446      20.161259      20.161335      20.222532      20.222656      20.161448      20.161602      20.222824      20.283852      20.283670      20.344492      20.344688      20.405336      20.465796      20.465567      20.405123      20.404957      20.404831      20.465244      20.465385      20.525625      20.525469      20.585510      20.585682      20.585896      20.525824      20.526070      20.586161      20.646070      20.645790      20.705505      20.705805      20.765368      20.824762      20.824429      20.765051      20.764786      20.824146      20.823912      20.764566      20.705055      20.645370      20.645557      20.705257      20.645222      20.704891      20.704762      20.645107      20.645021      20.644962      20.704590      20.704662      20.764130      20.764044      20.823332      20.823431      20.823557      20.764242      20.764387      20.823717      20.882887      20.941906      20.941717      20.882713      20.882572      20.882462      20.941437      20.941563      21.000412      21.000273      21.058981      21.059132      21.059315      21.000580      21.000784      21.059532      21.001308      21.060087      21.059788      21.001024      20.942131      20.883097      20.883348      20.942400      20.942715      20.883648      20.883999      20.943083      21.002024      21.001640      21.060434      21.060835      21.119530      21.119114      21.177696      21.178127      21.236649      21.295120      21.294661      21.236204      21.235811      21.294254      21.293898      21.235468      21.176991      21.118437      21.118752      21.177319      21.118166      21.176704      21.176458      21.117935      21.117739      21.117573      21.176071      21.176249      21.234686      21.234495      21.292871      21.293076      21.293312      21.234909      21.235168      21.293585      21.351986      21.410410      21.410110      21.351700      21.351450      21.351234      21.409622      21.409849      21.468319      21.468081      21.526661      21.526913      21.527197      21.468592      21.468903      21.527519      21.469650      21.528290      21.527884      21.469255      21.410749      21.352312      21.352682      21.411133      21.411564      21.353102      21.353575      21.412048      21.470591      21.470095      21.528746      21.529255      21.588100      21.647200      21.646669      21.587582      21.587114      21.586695      21.645761      21.646193      21.705597      21.705156      21.764954      21.765404      21.765902      21.706085      21.706625      21.766451      21.826733      21.826174      21.886902      21.887470      21.948536      22.009512      22.008928      21.947960      21.947432      22.008392      22.007902      21.946953      21.885914      21.886385      21.825666      21.825205      21.824787      21.824411      21.885099      21.885487      21.946516      22.007456      22.007050      21.946119      21.945761      22.006681      22.006350      21.945436      21.884438      21.884750      21.824072      21.823769      21.763557      21.763851      21.704086      21.703802      21.644451      21.585428      21.585690      21.644724      21.645031      21.585987      21.586321      21.645376      21.704760      21.764545      21.764179      21.704405      21.703135      21.762857      21.762678      21.702963      21.643650      21.584669      21.584820      21.643812      21.643997      21.584997      21.585197      21.644209      21.703552      21.703329      21.763063      21.763296      21.823496      21.823256      21.883905      21.884157      21.945147      22.006050      22.005779      21.944885      21.944653      22.005537      22.005322      21.944445      21.883482      21.883680      21.823040      21.822851      21.822683      21.822536      21.883152      21.883307      21.944260      22.005129      22.004957      21.944098      21.943954      22.004807      22.004673      21.943829      21.882898      21.883017      21.822409      21.822298      21.762157      21.702477      21.702572      21.762262      21.762520      21.762381      21.702684      21.702812      21.643509      21.643389      21.584425      21.584538      21.584330      21.643286      21.643196      21.584249      21.525557      21.525629      21.467117      21.467052      21.408672      21.350363      21.350412      21.408730      21.408798      21.350473      21.350550      21.408884      21.467291      21.525820      21.525717      21.467196      21.467871      21.526442      21.526251      21.467691      21.467535      21.526085      21.525942      21.467403      21.350643      21.408987      21.409111      21.350756      21.350891      21.409256      21.409426      21.351049      21.234333      21.292698      21.292551      21.234198      21.234085      21.292427      21.292324      21.233994      21.117163      21.175613      21.175695      21.117233      21.117325      21.175797      21.175920      21.117435      21.175501      21.117067      21.117107      21.175550      21.233919      21.292242      21.292173      21.233860      21.233814      21.292120      21.292080      21.233782      21.175438      21.175463      21.117039      21.117022      21.117012      21.117008      21.175411      21.175421      21.233757      21.292048      21.292027      21.233742      21.233734      21.292011      21.292002      21.233730      21.175411      21.117020      21.117012      21.175409      21.117029      21.175417      21.175425      21.117043      21.117056      21.117071      21.175446      21.175434      21.233740      21.233747      21.292004      21.292000      21.291998      21.233734      21.233730      21.291998      21.350252      21.408531      21.408522      21.350248      21.350246      21.350246      21.408514      21.408516      21.466856      21.466850      21.525312      21.525322      21.525335      21.466866      21.466881      21.525354      21.466925      21.525408      21.525377      21.466900      21.408545      21.350262      21.350275      21.408564      21.408592      21.350296      21.350325      21.408627      21.466999      21.466957      21.525448      21.525497      21.584181      21.643122      21.643059      21.584126      21.584080      21.584044      21.642965      21.643007      21.702265      21.702217      21.761873      21.761929      21.761993      21.702324      21.702394      21.762070      21.822203      21.822119      21.882706      21.882795      21.943718      22.004555      22.004454      21.943623      21.943539      22.004364      22.004286      21.943466      21.882563      21.882627      21.822048      21.821987      21.821936      21.821894      21.882458      21.882505      21.943405      22.004219      22.004162      21.943352      21.943308      22.004112      22.004070      21.943270      21.882383      21.882416      21.821857      21.821827      21.761732      21.761757      21.702116      21.702095      21.642862      21.583960      21.583973      21.642879      21.642902      21.583990      21.584013      21.642929      21.702177      21.761827      21.761789      21.702143      21.702055      21.761683      21.761671      21.702047      21.642824      21.583933      21.583937      21.642830      21.642838      21.583942      21.583948      21.642849      21.702078      21.702065      21.761694      21.761711      21.821802      21.821783      21.882332      21.882355      21.943237      22.004036      22.004007      21.943213      21.943190      22.003983      22.003963      21.943172      21.882298      21.882313      21.821768      21.821754      21.821745      21.821739      21.882278      21.882286      21.943161      22.003948      22.003939      21.943151      21.943144      22.003931      22.003927      21.943142      21.882271      21.882273      21.821735      21.821733      21.761654      21.702034      21.702036      21.761656      21.761665      21.761660      21.702038      21.702042      21.642820      21.642818      21.583929      21.583931      21.583929      21.642817      21.642817      21.583929      21.525295      21.525295      21.466848      21.466848      21.408525      21.35