<VTKFile type="UnstructuredGrid" version="1.0" byte_order="LittleEndian" header_type="UInt64">
  <UnstructuredGrid>
    <Piece NumberOfPoints="40528" NumberOfCells="18337">
      <CellData Scalars="Scalars_">
        <DataArray type="Float32" Name="Scalars_" format="ascii">
     13.723903      13.723918      13.688560      13.688546      13.626283      13.546843      13.546856      13.626296      13.626325      13.546883      13.546925      13.626368      13.688634      13.688590      13.723947      13.723991      13.724052      13.724129      13.688769      13.688693      13.626426      13.546981      13.547052      13.626499      13.626590      13.547139      13.547244      13.626698      13.688972      13.688862      13.724223      13.724336      13.724468      13.724621      13.689255      13.689103      13.626825      13.547368      13.547511      13.626973      13.627143      13.547677      13.547865      13.627337      13.689626      13.689428      13.724797      13.724998      13.725224      13.725480      13.690103      13.689850      13.627556      13.548079      13.548321      13.627803      13.628081      13.548593      13.548897      13.628391      13.690701      13.690385      13.725766      13.726085      13.726440      13.726834      13.691443      13.691052      13.628737      13.549236      13.549613      13.629122      13.629547      13.550032      13.550495      13.630018      13.692351      13.691875      13.727269      13.727750      13.728279      13.728860      13.693453      13.692877      13.630537      13.551006      13.551570      13.631107      13.631733      13.552189      13.552867      13.632419      13.694777      13.694085      13.729496      13.730191      13.730950      13.731777      13.696355      13.695532      13.633167      13.553609      13.554420      13.633985      13.634873      13.555303      13.556264      13.635839      13.698221      13.697249      13.732676      13.733650      13.734706      13.735847      13.700412      13.699273      13.636888      13.557306      13.558437      13.638021      13.639248      13.559661      13.560982      13.640570      13.702966      13.701641      13.737079      13.738405      13.652984      13.573434      13.575740      13.655274      13.717640      13.753070      13.750794      13.715359      13.713217      13.748655      13.746649      13.711207      13.648818      13.650833      13.571271      13.569246      13.567353      13.646933      13.645170      13.565586      13.563938      13.562406      13.641994      13.643526      13.705923      13.704391      13.739833      13.741365      13.743009      13.707566      13.709326      13.744768      13.580808      13.578196      13.657711      13.660300      13.722638      13.720064      13.755488      13.758056      13.763657      13.760777      13.725368      13.728258      13.665959      13.663048      13.583581      13.586522      13.592934      13.589638      13.669041      13.672297      13.734544      13.731316      13.766702      13.769916      13.776877      13.773306      13.737950      13.741541      13.679361      13.675735      13.596416      13.600092      13.710500      13.631771      13.637228      13.715846      13.777552      13.812638      13.807416      13.772286      13.767251      13.802421      13.797646      13.762440      13.700513      13.705391      13.626561      13.621591      13.616853      13.695859      13.691422      13.612341      13.608047      13.603967      13.683180      13.687199      13.749293      13.745319      13.780636      13.784586      13.788733      13.753468      13.757848      13.793085      13.648915      13.642941      13.721437      13.727281      13.788801      13.783054      13.818093      13.823788      13.835921      13.829728      13.794798      13.801052      13.739753      13.733383      13.655161      13.661686      13.675615      13.668501      13.746398      13.753326      13.814365      13.807572      13.842374      13.849093      13.863365      13.856088      13.821440      13.828805      13.768075      13.760550      13.683039      13.690783      12.509654      12.398215      12.408558      12.519615      12.629996      12.739622      12.730398      12.620401      12.611323      12.721671      12.713416      12.602737      12.491300      12.500223      12.388411      12.379128      12.266251      12.275941      12.162854      12.152680      12.038376      11.923237      11.934622      12.049114      12.060494      11.946725      11.959564      12.072528      12.184961      12.173612      12.286176      12.296964      12.308311      12.320214      12.209458      12.196911      12.085224      11.973145      11.987465      12.098586      12.112614      12.002495      12.018178      12.127306      12.236320      12.222599      12.332668      12.345649      12.455569      12.565240      12.552911      12.442946      12.430911      12.419453      12.530128      12.541217      12.650853      12.640137      12.749371      12.759676      12.770576      12.662182      12.674165      12.782114      12.889110      12.995275      12.984800      12.878093      12.867671      12.857807      12.965452      12.974869      13.081248      13.072262      13.178074      13.186663      13.195688      13.090709      13.100667      13.205172      13.308461      13.299406      13.401269      13.409937      13.508636      13.603043      13.595032      13.500315      13.492361      13.587362      13.580023      13.484760      13.385098      13.282550      13.290775      13.392995      13.370375      13.267246      13.274713      13.377563      13.477497      13.573001      13.566284      13.470559      13.463934      13.559863      13.553727      13.457611      13.356985      13.363520      13.260135      13.253366      13.147708      13.040606      13.047916      13.154736      13.169903      13.162128      13.055616      13.063725      12.956522      12.948054      12.839623      12.848468      12.831249      12.940025      12.932413      12.823320      12.815816      12.925200      12.918368      12.808716      12.802004      12.795661      12.905783      12.911901      13.020855      13.014948      13.122955      13.128666      13.134686      13.027091      13.033670      13.141029      13.246924      13.240798      13.344831      13.350760      13.451580      13.547868      13.542275      13.445829      13.440351      13.536942      13.531857      13.435136      13.333826      13.229446      13.234976      13.339190      13.323891      13.219224      13.224199      13.328730      13.430175      13.527017      13.522410      13.425460      13.420982      13.518032      13.513875      13.416736      13.314953      13.319302      13.214510      13.210049      13.102983      12.994353      12.999070      13.107567      13.117542      13.112417      13.004067      13.009356      12.899999      12.894535      12.784024      12.789673      12.778700      12.889380      12.884520      12.773687      12.661963      12.549384      12.554729      12.667136      12.678483      12.672638      12.560418      12.566469      12.453637      12.447368      12.333468      12.339971      12.327369      12.441480      12.435956      12.321654      12.206444      12.212363      12.096416      12.090277      11.973096      11.854831      11.861447      11.979468      11.986303      11.868559      11.876194      11.993625      12.110014      12.102987      12.218690      12.225443      12.232640      12.240302      12.125513      12.117516      12.001457      11.884381      11.893149      12.009825      12.018752      11.902529      11.912548      12.028262      12.143077      12.134027      12.248446      12.257091      12.370351      12.362064      12.474900      12.482865      12.594623      12.705610      12.698233      12.586957      12.579721      12.691264      12.684687      12.572899      12.460303      12.346891      12.354251      12.467385      12.409583      12.294496      12.298255      12.413248      12.527331      12.640530      12.637040      12.523756      12.520429      12.633787      12.630758      12.517336      12.403016      12.406178      12.291008      12.287777      12.171577      12.174882      12.057751      12.054370      11.936103      11.816722      11.820260      11.939561      11.943314      11.824105      11.828278      11.947379      12.065372      12.061412      12.178455      12.182312      12.186469      12.190944      12.074255      12.069647      11.951777      11.832800      11.837692      11.956525      11.961647      11.842978      11.848683      11.967163      12.084551      12.079217      12.195752      12.200913      12.316306      12.430779      12.425937      12.311309      12.306645      12.302299      12.417185      12.421410      12.535276      12.531167      12.644269      12.648269      12.652542      12.539673      12.544371      12.657102      12.768972      12.879942      12.875635      12.764543      12.760386      12.756491      12.867791      12.871589      12.981771      12.978065      13.087105      13.090724      13.094571      12.985714      12.989904      13.098655      13.205831      13.201847      13.306944      13.310836      13.412710      13.509931      13.506193      13.408900      13.405297      13.502655      13.499310      13.401894      13.299799      13.194549      13.198090      13.303267      13.293456      13.188085      13.191216      13.296531      13.398684      13.496151      13.493172      13.395659      13.392815      13.490365      13.487725      13.390141      13.287853      13.290565      13.185144      13.182389      13.074711      12.965419      12.968272      13.077514      13.083702      13.080508      12.971325      12.974586      12.864231      12.860898      12.749434      12.752844      12.746252      12.857782      12.854874      12.743285      12.740523      12.852162      12.849639      12.737957      12.735576      12.733369      12.845118      12.847294      12.957959      12.955812      13.065245      13.067366      13.069645      12.960271      12.962754      13.072091      13.179810      13.177399      13.282931      13.285311      13.387631      13.485246      13.482919      13.385281      13.383080      13.480740      13.478702      13.381025      13.278633      13.173052      13.175149      13.280708      13.274902      13.169289      13.171101      13.276701      13.379108      13.476797      13.475022      13.377323      13.375663      13.473370      13.471833      13.374122      13.271685      13.273233      13.167607      13.166052      13.058187      12.948691      12.950267      13.059752      13.063273      13.061445      12.951973      12.953819      12.843102      12.841236      12.729444      12.731328      12.727707      12.839515      12.837929      12.726109      12.613338      12.499659      12.501282      12.614948      12.618607      12.616701      12.503053      12.504980      12.390449      12.388498      12.273015      12.274988      12.271208      12.386710      12.385073      12.269557      12.153073      12.154738      12.037254      12.035576      11.917015      11.797340      11.799046      11.918707      11.920569      11.800927      11.802998      11.922615      12.041120      12.039098      12.156564      12.158561      12.160743      12.163122      12.045750      12.043333      11.924859      11.805271      11.807764      11.927314      11.929996      11.810493      11.813473      11.932920      12.051253      12.048385      12.165712      12.168526      12.284788      12.282028      12.397380      12.400088      12.514465      12.627944      12.625333      12.511806      12.509346      12.622912      12.620674      12.507074      12.392571      12.277141      12.279483      12.394877      9.855502      9.712542      9.716333      9.859257      10.000288      10.139552      10.135935      9.996597      9.993290      10.132686      10.129772      9.990333      9.849152      9.852145      9.709161      9.706151      9.703477      9.846487      9.844120      9.701106      9.699009      9.697157      9.840171      9.842024      9.983262      9.981417      10.120946      10.122779      10.124846      9.985346      9.987694      10.127168      10.264975      10.401169      10.398895      10.262677      10.260631      10.258811      10.395059      10.396866      10.531527      10.529730      10.662861      10.664650      10.666654      10.533543      10.535797      10.668893      10.671388      10.674161      10.541112      10.538313      10.403709      10.267545      10.270414      10.406541      10.409687      10.273608      10.277156      10.413177      10.547662      10.680639      10.677237      10.544220      10.938799      10.808756      10.812122      10.942128      11.070679      11.197806      11.194565      11.067391      11.064411      11.191622      11.188954      11.061714      10.933062      10.935785      10.805711      10.802961      10.800486      10.930605      10.928395      10.798262      10.796268      10.794486      10.924636      10.926412      11.055113      11.053344      11.180644      11.182405      11.184365      11.057085      11.059279      11.186542      11.312428      11.436975      11.434836      11.310269      11.308323      11.306571      11.431163      11.432905      11.556190      11.554461      11.676505      11.678223      11.680121      11.558106      11.560223      11.682216      11.684520      11.687051      11.565124      11.562556      11.439336      11.314816      11.317451      11.441938      11.444801      11.320355      11.323548      11.447944      11.571033      11.692861      11.689825      11.567943      11.479721      11.356026      11.362442      11.485973      11.608157      11.729039      11.723145      11.602078      11.596465      11.717693      11.712657      11.591289      11.468643      11.344674      11.350114      11.473954      11.459270      11.335092      11.339676      11.463758      11.586520      11.708011      11.703731      11.582135      11.578108      11.699793      11.696177      11.574414      11.451387      11.327053      11.330893      11.455155      10.819925      10.815837      10.945796      10.949831      11.078270      11.074296      11.201369      11.205277      11.214236      11.209558      11.082627      11.087398      10.959114      10.954260      10.824418      10.829346      10.840634      10.834740      10.964424      10.970225      11.098297      11.092610      11.219343      11.224908      11.237538      11.230962      11.104491      11.111230      10.983443      10.976552      10.847067      10.854077      10.449593      10.314434      10.321906      10.456855      10.590621      10.723098      10.716016      10.583478      10.576900      10.709508      10.703540      10.570858      10.436752      10.301248      10.307556      10.442900      10.425978      10.290215      10.295477      10.431121      10.565324      10.698076      10.693086      10.560266      10.555657      10.688536      10.684397      10.551465      10.417035      10.281085      10.285428      10.421292      9.725325      9.720578      9.863451      9.868127      10.008963      10.004397      10.143568      10.148016      10.158348      10.152930      10.014024      10.019623      9.879111      9.873330      9.730626      9.736540      9.750477      9.743133      9.885523      9.892624      10.032609      10.025804      10.164306      10.170838      10.185770      10.177982      10.040087      10.048279      9.909137      9.900474      9.758657      9.767764      9.996399      9.866420      9.886049      10.012423      10.141797      10.273958      10.260226      10.127631      10.114008      10.247347      10.235245      10.101065      9.966584      9.981057      9.848019      9.831083      9.815671      9.953087      9.940609      9.801738      9.789187      9.777903      9.918675      9.929150      10.066964      10.057226      10.194234      10.203397      10.213278      10.077514      10.088886      10.223891      10.358080      10.491965      10.482256      10.348081      10.338717      10.329995      10.464708      10.473172      10.606708      10.598356      10.730792      10.739139      10.748183      10.615693      10.625326      10.757977      10.768585      10.780087      10.646521      10.635609      10.502298      10.368695      10.379883      10.513248      10.524814      10.391559      10.403581      10.537013      10.669955      10.806281      10.792597      10.658010      11.051646      10.924050      10.938148      11.064991      11.189308      11.312984      11.301080      11.176883      11.165261      11.289911      11.279480      11.154441      11.028008      11.039344      10.911248      10.899564      10.888862      11.017568      11.007950      10.879039      10.870009      10.861709      10.990942      10.999094      11.126491      11.118550      11.244672      11.252398      11.260752      11.135092      11.144396      11.269769      11.393847      11.516532      11.507987      11.385062      11.376925      11.369397      11.492745      11.500071      11.621836      11.614733      11.735403      11.742268      11.749661      11.629502      11.637770      11.757617      11.766170      11.775354      11.656262      11.646675      11.525749      11.403318      11.413516      11.535685      11.546389      11.424484      11.436271      11.557921      11.677670      11.795773      11.785209      11.666577      11.670345      11.554916      11.584844      11.692264      11.801439      11.910299      11.892804      11.782184      11.764004      11.876252      11.860631      11.746955      11.631219      11.510987      11.531096      11.649950      11.598297      11.477267      11.493281      11.614057      11.731039      11.845929      11.832126      11.716216      11.702426      11.819190      11.807085      11.689599      11.570354      11.448935      11.462558      11.583776      10.971225      10.953773      11.079447      11.095061      11.216438      11.202517      11.325601      11.338862      11.366720      11.352644      11.230936      11.245781      11.129725      11.111843      10.990876      11.013176      11.067581      11.038614      11.148507      11.167770      11.274943      11.260617      11.380710      11.393961      11.412890      11.405353      11.288113      11.299422      11.203693      11.186757      11.103934      11.154273      10.659139      10.582166      10.595477      10.836619      10.932422      10.821848      10.814089      10.924146      10.911599      10.622375      10.573181      10.647210      10.579329      10.437718      10.444814      10.597817      10.711658      10.881606      10.858014      10.704446      10.693933      10.838392      10.821401      10.682099      10.549936      10.415684      10.427380      10.563835      9.926511      9.906386      10.028863      10.045402      10.170764      10.156291      10.288731      10.304976      10.346588      10.323621      10.184626      10.196780      10.077904      10.061762      9.945012      9.960112      9.969466      10.094398      10.113132      10.205079      10.377781      10.434660      10.522055      10.473152      10.301765      10.125182      10.131594      10.074148      11.043159      11.170407      11.170020      11.042781      10.914133      10.784042      10.784404      10.914503      10.914933      10.784825      10.785316      10.915432      11.044106      11.043598      11.170856      11.171372      11.297269      11.296743      11.421301      11.421835      11.545110      11.667135      11.666584      11.544566      11.544091      11.666100      11.665675      11.543676      11.420429      11.420835      11.296287      11.295891      11.295548      11.295255      11.419775      11.420078      11.543316      11.665306      11.664985      11.543004      11.542736      11.664707      11.664468      11.542505      11.419293      11.419515      11.295003      11.294789      11.168955      11.041749      11.041945      11.169160      11.169687      11.169402      11.042180      11.042457      10.913818      10.913550      10.783476      10.783735      10.783257      10.913324      10.913135      10.783076      10.651537      10.518480      10.518648      10.651711      10.652173      10.651921      10.518851      10.519095      10.384467      10.384229      10.248019      10.248251      10.247828      10.384032      10.383870      10.247672      10.109848      10.109999      9.970508      9.970361      9.829172      9.686245      9.686384      9.829315      9.829492      9.686557      9.686769      9.829709      9.970910      10.110412      10.110185      9.970689      9.971498      10.111011      10.110684      9.971178      9.829971      9.687027      9.687337      9.830287      9.830664      9.687708      9.688148      9.831110      9.972332      9.971881      10.111398      10.111855      10.249718      10.385959      10.385490      10.249255      10.248862      10.248529      10.384752      10.385091      10.519732      10.519387      10.652472      10.652825      10.653239      10.520140      10.520615      10.653722      10.654283      10.521168      10.521808      10.654929      10.656525      10.655673      10.522546      10.523393      10.388715      10.387873      10.251616      10.252455      10.250888      10.387139      10.386505      10.250258      10.112391      10.113014      9.973482      9.972862      9.831635      9.688666      9.689274      9.832249      9.832963      9.689982      9.690804      9.833792      9.975035      10.114575      10.113739      9.974201      9.977095      10.116638      10.115537      9.975993      9.834747      9.691752      9.692844      9.835845      9.837103      9.694097      9.695527      9.838538      9.979787      9.978353      10.117895      10.119325      10.257198      10.393455      10.392035      10.255774      10.254519      10.253418      10.389680      10.390781      10.525464      10.524361      10.657496      10.658602      10.659854      10.526715      10.528131      10.661268      10.792896      10.791483      10.921638      10.923050      11.051762      11.179066      11.177655      11.050350      11.049093      11.176398      11.175281      11.047978      10.919271      10.789122      10.790230      10.920382      10.788145      10.918290      10.917426      10.787288      10.786538      10.785884      10.916008      10.916669      11.045359      11.044689      11.171965      11.172642      11.173413      11.046124      11.046992      11.174289      11.300216      11.424810      11.423923      11.299334      11.298555      11.297870      11.422444      11.423138      11.546428      11.545728      11.667761      11.668469      11.669269      11.547220      11.548113      11.670166      11.550241      11.672299      11.671173      11.549117      11.425810      11.301211      11.302332      11.426933      11.428191      11.303590      11.304998      11.429597      11.552901      11.551499      11.673555      11.674953      11.795797      11.794405      11.914093      11.915481      12.034051      12.151559      12.150184      12.032670      12.031420      12.148936      12.147810      12.030293      11.911714      11.792024      11.793150      11.912841      11.791014      11.910702      11.909794      11.790111      11.789306      11.788590      11.908261      11.908983      12.027551      12.026821      12.144320      12.145057      12.145878      12.028367      12.029278      12.146792      12.263294      12.378828      12.377906      12.262376      12.261549      12.260808      12.376328      12.377075      12.491671      12.490917      12.604601      12.605360      12.606200      12.492507      12.493432      12.607128      12.495578      12.609276      12.608151      12.494453      12.379848      12.264313      12.265439      12.380974      12.382215      12.266683      12.268052      12.383577      12.498173      12.496816      12.610510      12.611860      12.724641      12.836470      12.835130      12.723295      12.722064      12.720941      12.832778      12.833901      12.944679      12.943556      13.053065      13.054189      13.055411      12.945905      12.947240      13.056743      13.164614      13.163287      13.268929      13.270252      13.372693      13.470407      13.469087      13.371371      13.370151      13.467866      13.466738      13.369025      13.266583      13.267708      13.162065      13.160942      13.159911      13.158968      13.264604      13.265551      13.367990      13.465699      13.464744      13.367039      13.366166      13.463865      13.463061      13.365368      13.262944      13.263737      13.158106      13.157319      13.049458      13.050239      12.940739      12.939963      12.829200      12.717376      12.718141      12.829969      12.830818      12.718986      12.719916      12.831753      12.942530      13.052037      13.051097      12.941592      12.938049      13.047523      13.046998      12.937531      12.826797      12.715001      12.715503      12.827306      12.827873      12.716063      12.716685      12.828503      12.939260      12.938623      13.048105      13.048748      13.156603      13.155953      13.261565      13.262222      13.364639      13.462326      13.461655      13.363976      13.363372      13.461043      13.460488      13.362823      13.260428      13.260969      13.155364      13.154831      13.154350      13.153918      13.259501      13.259940      13.362328      13.459985      13.459529      13.361880      13.361477      13.459118      13.458748      13.361114      13.258749      13.259104      13.153530      13.153183      13.045382      12.935946      12.936278      13.045721      13.046526      13.046101      12.936650      12.937067      12.826339      12.825931      12.714152      12.714553      12.713796      12.825566      12.825242      12.713480      12.600767      12.601075      12.487447      12.487147      12.372622      12.257169      12.257451      12.372913      12.373244      12.257773      12.258140      12.373619      12.488170      12.601815      12.601423      12.487786      12.490239      12.603916      12.603301      12.489632      12.489087      12.602749      12.602256      12.488602      12.258554      12.374043      12.374519      12.259023      12.259551      12.375055      12.375656      12.260143      12.026172      12.143664      12.143079      12.025596      12.025084      12.142560      12.142099      12.024633      11.786469      11.906106      11.906549      11.786902      11.787396      11.907051      11.907619      11.787956      11.905379      11.785761      11.786091      11.905718      12.024236      12.141693      12.141336      12.023888      12.023583      12.141023      12.140749      12.023318      11.904827      11.905084      11.785475      11.785227      11.785013      11.784831      11.904415      11.904606      12.023088      12.140511      12.140304      12.022890      12.022719      12.140125      12.139972      12.022573      11.904113      11.784543      11.784676      11.904252      11.784431      11.903995      11.903895      11.784338      11.784260      11.784195      11.903743      11.903811      12.022254      12.022180      12.139556      12.139635      12.139729      12.022343      12.022449      12.139841      12.256222      12.371637      12.371513      12.256104      12.256004      12.255919      12.371318      12.371408      12.485883      12.485787      12.599353      12.599453      12.599570      12.485994      12.486125      12.599708      12.486451      12.600048      12.599866      12.486277      12.371782      12.256360      12.256521      12.371950      12.372144      12.256707      12.256922      12.372367      12.486884      12.486653      12.600257      12.600495      12.713201      12.824955      12.824701      12.712955      12.712738      12.712548      12.824282      12.824478      12.935159      12.934956      13.044363      13.044573      13.044810      12.935390      12.935651      13.045078      13.152873      13.152597      13.258149      13.258431      13.360789      13.458415      13.458118      13.360498      13.360241      13.457853      13.457618      13.360011      13.257675      13.257897      13.152352      13.152137      13.151946      13.151780      13.257306      13.257479      13.359809      13.457410      13.457227      13.359632      13.359476      13.457067      13.456927      13.359342      13.257027      13.257156      13.151635      13.151509      13.043757      13.043878      12.934488      12.934373      12.823721      12.712011      12.712117      12.823832      12.823960      12.712240      12.712383      12.824110      12.934778      13.044179      13.044018      12.934623      12.934122      13.043495      13.043436      12.934067      12.823429      12.711736      12.711785      12.823483      12.823547      12.711847      12.711922      12.823627      12.934274      12.934191      13.043568      13.043654      13.151402      13.151312      13.256821      13.256915      13.359226      13.456807      13.456706      13.359129      13.359047      13.456621      13.456553      13.358981      13.256679      13.256742      13.151237      13.151175      13.151127      13.151092      13.256592      13.256628      13.358929      13.456498      13.456459      13.358891      13.358865      13.456432      13.456419      13.358852      13.256556      13.256567      13.151068      13.151056      13.043324      12.933959      12.933969      13.043335      13.043390      13.043357      12.933990      12.934023      12.823388      12.823359      12.711669      12.711697      12.711650      12.823339      12.823329      12.711640      12.599004      12.599012      12.485468      12.485460      12.371012      12.255634      12.255641      12.371018      12.371034      12.255655      12.255676      12.371057      12.4855