<VTKFile type="UnstructuredGrid" version="1.0" byte_order="LittleEndian" header_type="UInt64">
  <UnstructuredGrid>
    <Piece NumberOfPoints="40528" NumberOfCells="18337">
      <CellData Scalars="Scalars_">
        <DataArray type="Float32" Name="Scalars_" format="ascii">
     24.532219      24.532206      24.513176      24.513189      24.485062      24.456640      24.456629      24.485048      24.485022      24.456604      24.456566      24.484983      24.513109      24.513149      24.532179      24.532137      24.532084      24.532015      24.512987      24.513054      24.484930      24.456516      24.456453      24.484863      24.484785      24.456377      24.456287      24.484692      24.512810      24.512905      24.531933      24.531836      24.531723      24.531597      24.512573      24.512699      24.484583      24.456184      24.456068      24.484463      24.484325      24.455938      24.455793      24.484173      24.512278      24.512434      24.531454      24.531298      24.531122      24.530931      24.511915      24.512104      24.484005      24.455633      24.455460      24.483822      24.483622      24.455271      24.455065      24.483404      24.511484      24.511709      24.530722      24.530495      24.530249      24.529982      24.510977      24.511240      24.483170      24.454844      24.454605      24.482916      24.482643      24.454348      24.454073      24.482349      24.510389      24.510695      24.529694      24.529383      24.529051      24.528694      24.509712      24.510061      24.482037      24.453779      24.453466      24.481701      24.481342      24.453133      24.452778      24.480961      24.508938      24.509336      24.528313      24.527905      24.527470      24.527006      24.508055      24.508511      24.480555      24.452400      24.452002      24.480122      24.479662      24.451578      24.451128      24.479174      24.507055      24.507570      24.526510      24.525982      24.525421      24.524824      24.505926      24.506508      24.478655      24.450653      24.450150      24.478104      24.477522      24.449617      24.449057      24.476904      24.504650      24.505308      24.524189      24.523516      24.471439      24.444132      24.443262      24.470469      24.497757      24.516403      24.517485      24.498804      24.499790      24.518505      24.519468      24.500723      24.473227      24.472359      24.444954      24.445734      24.446472      24.474049      24.474825      24.447172      24.447834      24.448462      24.476250      24.475557      24.503216      24.503954      24.522799      24.522039      24.521233      24.502434      24.501602      24.520376      24.441374      24.442345      24.469440      24.468351      24.495478      24.496651      24.515257      24.514042      24.511391      24.512754      24.494236      24.492920      24.465984      24.467201      24.440350      24.439266      24.436913      24.438122      24.464697      24.463335      24.490055      24.491528      24.509947      24.508419      24.505085      24.506800      24.488495      24.486843      24.460369      24.461893      24.435635      24.434282      24.446886      24.422304      24.420160      24.444479      24.469641      24.487207      24.489912      24.472242      24.474701      24.492466      24.494879      24.477022      24.451302      24.449158      24.424328      24.426235      24.428034      24.453327      24.455242      24.429731      24.431335      24.432850      24.458755      24.457048      24.483246      24.485096      24.503269      24.501347      24.499311      24.481289      24.479216      24.497158      24.415468      24.417883      24.441931      24.439230      24.463970      24.466887      24.484346      24.481319      24.474724      24.478115      24.460884      24.457615      24.433332      24.436367      24.412903      24.410177      24.404202      24.407280      24.430115      24.426702      24.450491      24.454155      24.471134      24.467335      24.459057      24.463314      24.446609      24.442497      24.419243      24.423082      24.400927      24.397442      24.174526      24.141830      24.144165      24.176340      24.206356      24.234194      24.233387      24.205063      24.203825      24.232594      24.231819      24.202648      24.171232      24.172827      24.139664      24.137655      24.102013      24.104422      24.067211      24.064430      24.025059      23.984076      23.987524      24.028185      24.031609      23.991316      23.995487      24.035360      24.073561      24.070248      24.107037      24.109877      24.112959      24.116304      24.081118      24.077175      24.039465      24.000065      24.005081      24.043953      24.048857      24.010557      24.016506      24.054213      24.090115      24.085419      24.119936      24.123877      24.155487      24.184828      24.182505      24.152325      24.149397      24.146683      24.178268      24.180323      24.209106      24.207705      24.235004      24.235811      24.236603      24.210554      24.212044      24.237368      24.260813      24.282242      24.282595      24.260651      24.260420      24.260134      24.283031      24.282854      24.303078      24.303690      24.322250      24.321215      24.320059      24.302364      24.301537      24.318769      24.334290      24.336037      24.350971      24.348770      24.363232      24.378996      24.382076      24.365879      24.368341      24.384958      24.387655      24.370634      24.354877      24.339088      24.337631      24.353003      24.358219      24.341637      24.340418      24.356613      24.372770      24.390184      24.392555      24.374762      24.376623      24.394779      24.396868      24.378363      24.361090      24.359707      24.342754      24.343781      24.325432      24.305365      24.305042      24.324759      24.323177      24.324011      24.304661      24.304214      24.283142      24.283197      24.259447      24.259806      24.259066      24.283203      24.283175      24.258673      24.258276      24.283115      24.283037      24.257879      24.257488      24.257109      24.282839      24.282942      24.306076      24.306252      24.327549      24.327091      24.326591      24.305874      24.305639      24.326040      24.344725      24.345594      24.363571      24.362373      24.379988      24.398829      24.400673      24.381512      24.382940      24.402409      24.404041      24.384281      24.365730      24.347149      24.346401      24.364687      24.367620      24.348494      24.347843      24.366705      24.385540      24.405579      24.407028      24.386726      24.387842      24.408398      24.409687      24.388893      24.369291      24.368481      24.349100      24.349670      24.329062      24.306784      24.306667      24.328722      24.327971      24.328360      24.306541      24.306404      24.282732      24.282625      24.256399      24.256744      24.256073      24.282520      24.282423      24.255768      24.226759      24.195429      24.196123      24.227262      24.228384      24.227804      24.196875      24.197683      24.164734      24.163702      24.128410      24.129658      24.127266      24.162748      24.161871      24.126219      24.088617      24.089825      24.050579      24.049227      24.008205      23.965714      23.967312      24.009687      24.011318      23.969076      23.971018      24.013111      24.053690      24.052063      24.091146      24.092590      24.094168      24.095888      24.057421      24.055471      24.015079      23.973156      23.975508      24.017239      24.019609      23.978096      23.980942      24.022209      24.061884      24.059553      24.097759      24.099798      24.135794      24.134071      24.168352      24.169743      24.201532      24.231070      24.230347      24.200478      24.199486      24.229658      24.229002      24.198555      24.165852      24.131010      24.132481      24.167055      24.158016      24.121639      24.122223      24.158508      24.192751      24.224817      24.224537      24.192360      24.192013      24.224291      24.224075      24.191706      24.157187      24.157576      24.121117      24.120651      24.082254      24.082785      24.042740      24.042152      24.000505      23.957464      23.958141      24.001143      24.001856      23.958904      23.959757      24.002657      24.044138      24.043400      24.083380      24.084045      24.084787      24.085608      24.045872      24.044958      24.003550      23.960712      23.961775      24.004541      24.005644      23.962955      23.964266      24.006861      24.047998      24.046883      24.086515      24.087517      24.125259      24.161068      24.160332      24.124386      24.123592      24.122871      24.159056      24.159664      24.193670      24.193188      24.225132      24.225481      24.225870      24.194204      24.194790      24.226295      24.255487      24.282333      24.282253      24.255230      24.254999      24.254791      24.282131      24.282187      24.307108      24.307215      24.330254      24.329975      24.329685      24.307001      24.306894      24.329382      24.350210      24.350719      24.370777      24.370056      24.389887      24.410908      24.412060      24.390825      24.391714      24.413151      24.414181      24.392555      24.372110      24.351662      24.351202      24.371462      24.373314      24.352522      24.352102      24.372728      24.393354      24.415157      24.416084      24.394112      24.394831      24.416962      24.417793      24.395515      24.374409      24.373875      24.352926      24.353315      24.331291      24.307671      24.307550      24.331041      24.330524      24.330786      24.307436      24.307323      24.282087      24.282059      24.254448      24.254608      24.254313      24.282045      24.282043      24.254200      24.254110      24.282055      24.282080      24.254040      24.253990      24.253960      24.282167      24.282118      24.308056      24.308195      24.332251      24.332016      24.331778      24.307922      24.307795      24.331535      24.353691      24.354052      24.375410      24.374920      24.396166      24.418581      24.419331      24.396786      24.397375      24.420042      24.420717      24.397940      24.376328      24.354742      24.354403      24.375877      24.377172      24.355389      24.355070      24.376759      24.398476      24.421358      24.421967      24.398987      24.399477      24.422544      24.423096      24.399942      24.377953      24.377571      24.355698      24.355999      24.333160      24.308784      24.308632      24.332937      24.332481      24.332710      24.308483      24.308336      24.282228      24.282299      24.253948      24.253946      24.253967      24.282379      24.282467      24.254000      24.223314      24.190445      24.190508      24.223331      24.223427      24.223370      24.190592      24.190702      24.155870      24.155714      24.118866      24.119061      24.118706      24.155588      24.155489      24.118574      24.079853      24.080009      24.039658      24.039480      23.997608      23.954388      23.954594      23.997803      23.998037      23.954842      23.955135      23.998314      24.040127      24.039871      24.080200      24.080429      24.080698      24.081011      24.040775      24.040426      23.998638      23.955481      23.955879      23.999014      23.999449      23.956341      23.956867      23.999943      24.041634      24.041176      24.081371      24.081785      24.120239      24.119879      24.156540      24.156841      24.191437      24.223892      24.223736      24.191204      24.191006      24.223608      24.223505      24.190840      24.156057      24.119293      24.119564      24.156281      23.215237      23.162516      23.163059      23.215792      23.268312      23.320591      23.320005      23.267742      23.267271      23.319521      23.319122      23.266888      23.214409      23.214779      23.162073      23.161716      23.161434      23.214115      23.213886      23.161217      23.161055      23.160940      23.213589      23.213713      23.266151      23.266016      23.318199      23.318348      23.318544      23.266336      23.266579      23.318802      23.370749      23.422390      23.422108      23.370480      23.370270      23.370110      23.421713      23.421885      23.473156      23.472973      23.523849      23.524042      23.524286      23.473391      23.473684      23.524590      23.524958      23.525402      23.474478      23.474043      23.422739      23.371084      23.371496      23.423162      23.423672      23.371996      23.372593      23.424280      23.475613      23.526548      23.525928      23.474998      23.626406      23.576416      23.577038      23.627028      23.676458      23.725264      23.724653      23.675842      23.675310      23.724125      23.723673      23.674856      23.625422      23.625874      23.575884      23.575436      23.575058      23.625040      23.624722      23.574747      23.574495      23.574293      23.624252      23.624462      23.673883      23.673668      23.722475      23.722694      23.722963      23.674150      23.674471      23.723288      23.771412      23.818760      23.818439      23.771090      23.770819      23.770596      23.817947      23.818171      23.864656      23.864435      23.909954      23.910170      23.910427      23.864922      23.865236      23.910734      23.911093      23.911510      23.866039      23.865606      23.819139      23.771795      23.772243      23.819580      23.820091      23.772766      23.773367      23.820681      23.867109      23.912544      23.911993      23.866537      23.827644      23.780552      23.782139      23.829172      23.875284      23.920359      23.918970      23.873823      23.872509      23.917717      23.916594      23.871330      23.825050      23.777864      23.779133      23.826275      23.822981      23.775728      23.776733      23.823956      23.870277      23.915586      23.914686      23.869337      23.868502      23.913883      23.913174      23.867762      23.821352      23.774055      23.774839      23.822117      23.578596      23.577761      23.627747      23.628574      23.677986      23.677170      23.725965      23.726767      23.728710      23.727678      23.678917      23.679972      23.630598      23.629520      23.579556      23.580652      23.583309      23.581898      23.631819      23.633198      23.682510      23.681166      23.729874      23.731180      23.734289      23.732647      23.684023      23.685717      23.636496      23.634750      23.584900      23.586691      23.432446      23.380817      23.382801      23.434376      23.485573      23.536362      23.534529      23.483696      23.482031      23.532902      23.531462      23.480564      23.429251      23.377563      23.379080      23.430744      23.426815      23.375111      23.376247      23.427948      23.479279      23.530195      23.529083      23.478153      23.477179      23.528114      23.527273      23.476336      23.424997      23.373301      23.374134      23.425837      23.164507      23.163717      23.216463      23.217264      23.269810      23.268995      23.321287      23.322111      23.324219      23.323082      23.270771      23.271904      23.219341      23.218218      23.165449      23.166567      23.169439      23.167887      23.220665      23.222218      23.274775      23.273228      23.325542      23.327076      23.330885      23.328848      23.276571      23.278656      23.226158      23.224033      23.171268      23.173418      23.253857      23.203817      23.211248      23.260077      23.309656      23.360075      23.354929      23.304222      23.299217      23.350271      23.346060      23.294678      23.243174      23.248211      23.197229      23.191511      23.186617      23.238737      23.234869      23.182457      23.178932      23.175949      23.228636      23.231520      23.283834      23.281065      23.333218      23.335875      23.338882      23.287006      23.290611      23.342270      23.393610      23.444744      23.441719      23.390440      23.387592      23.385052      23.436552      23.438993      23.490040      23.487682      23.538420      23.540722      23.543295      23.492666      23.495575      23.546165      23.549374      23.552969      23.502302      23.498783      23.448084      23.397112      23.400942      23.451761      23.455797      23.405081      23.409481      23.460247      23.510271      23.561623      23.557018      23.506138      23.656391      23.607201      23.611904      23.660839      23.708862      23.756281      23.752451      23.704752      23.701054      23.748974      23.745832      23.697737      23.648958      23.652451      23.603100      23.599497      23.596308      23.645859      23.643101      23.593475      23.590952      23.588699      23.638451      23.640644      23.689737      23.687614      23.736124      23.738173      23.740458      23.692112      23.694769      23.743002      23.790508      23.837183      23.834858      23.788073      23.785879      23.783909      23.830872      23.832762      23.878710      23.876909      23.921900      23.923605      23.925488      23.880705      23.882912      23.927567      23.929861      23.932390      23.888044      23.885349      23.839758      23.793211      23.796206      23.842607      23.845760      23.799519      23.803179      23.849249      23.894316      23.938259      23.935181      23.891022      23.888554      23.845137      23.857220      23.897430      23.938030      23.977934      23.971100      23.930351      23.923397      23.964893      23.959269      23.917139      23.873693      23.828480      23.835926      23.880644      23.862202      23.816629      23.822165      23.867592      23.911531      23.954176      23.949575      23.906509      23.902008      23.945417      23.941658      23.897961      23.853113      23.807220      23.811682      23.857407      23.623669      23.617340      23.665859      23.671499      23.718386      23.713406      23.760475      23.765020      23.774988      23.769886      23.723776      23.729511      23.684742      23.677795      23.631063      23.639708      23.661484      23.649790      23.692278      23.700230      23.741419      23.735460      23.780176      23.785185      23.792501      23.789560      23.747107      23.752193      23.715475      23.708235      23.676308      23.696985      23.515451      23.492592      23.500328      23.588493      23.613739      23.580860      23.576902      23.609701      23.603197      23.497911      23.487761      23.509731      23.477596      23.422697      23.425594      23.486145      23.525944      23.590530      23.580868      23.523075      23.519030      23.573217      23.566938      23.514627      23.465200      23.414047      23.418583      23.470858      23.227751      23.219351      23.266806      23.273947      23.321421      23.315437      23.365789      23.372265      23.389629      23.379917      23.327324      23.332630      23.289337      23.281435      23.235800      23.242594      23.246908      23.298010      23.308363      23.336321      23.403225      23.427635      23.468330      23.445553      23.381390      23.317198      23.317900      23.300711      23.673271      23.722023      23.722075      23.673326      23.623980      23.574095      23.574032      23.623920      23.623867      23.573975      23.573925      23.623821      23.673183      23.673223      23.721979      23.721943      23.770027      23.770060      23.817385      23.817354      23.863832      23.909357      23.909384      23.863859      23.863895      23.909418      23.909462      23.863939      23.817469      23.817423      23.770102      23.770149      23.770205      23.770264      23.817577      23.817520      23.863991      23.909512      23.909565      23.864044      23.864103      23.909622      23.909681      23.864162      23.817698      23.817636      23.770325      23.770388      23.722322      23.673586      23.673519      23.722258      23.722134      23.722195      23.673452      23.673388      23.624043      23.624111      23.574234      23.574163      23.574306      23.624180      23.624250      23.574381      23.524033      23.473257      23.473179      23.523956      23.523806      23.523880      23.473101      23.473022      23.421854      23.421936      23.370428      23.370344      23.370512      23.422018      23.422098      23.370596      23.318781      23.318695      23.266598      23.266684      23.214333      23.161747      23.161659      23.214247      23.214157      23.161572      23.161480      23.214067      23.266422      23.318523      23.318609      23.266512      23.266247      23.318354      23.318438      23.266335      23.213978      23.161388      23.161299      23.213888      23.213802      23.161211      23.161125      23.213718      23.266085      23.266163      23.318272      23.318197      23.370033      23.421560      23.421625      23.370104      23.370180      23.370260      23.421774      23.421698      23.472874      23.472946      23.523733      23.523666      23.523603      23.472805      23.472746      23.523548      23.523502      23.472694      23.472654      23.523470      23.523451      23.523451      23.472630      23.472620      23.421408      23.421425      23.369877      23.369854      23.369917      23.421457      23.421503      23.369970      23.318129      23.318069      23.265947      23.266010      23.213642      23.161045      23.160973      23.213573      23.213516      23.160912      23.160862      23.213472      23.265856      23.317993      23.318024      23.265894      23.265837      23.317989      23.317980      23.265837      23.213446      23.160830      23.160816      23.213438      23.213457      23.160828      23.160868      23.213505      23.265923      23.265865      23.318026      23.318094      23.369993      23.421585      23.421495      23.369915      23.369867      23.369850      23.421412      23.421440      23.472670      23.472633      23.523470      23.523516      23.523592      23.472736      23.472836      23.523701      23.574135      23.574017      23.623962      23.624086      23.673498      23.722300      23.722162      23.673365      23.673267      23.722057      23.721985      23.673199      23.623810      23.573879      23.573935      23.623871      23.573853      23.623774      23.623760      23.573845      23.573856      23.573885      23.623787      23.623766      23.673138      23.673153      23.721918      23.721907      23.721912      23.673138      23.673157      23.721937      23.770039      23.817379      23.817347      23.770010      23.770000      23.770006      23.817337      23.817335      23.863815      23.863817      23.909344      23.909344      23.909359      23.863831      23.863865      23.909393      23.864004      23.909531      23.909449      23.863922      23.817434      23.770092      23.770168      23.817514      23.817625      23.770277      23.770416      23.817768      23.864256      23.864115      23.909639      23.909779      23.954220      23.954084      23.997324      23.997450      24.039335      24.079727      24.079628      24.039221      24.039135      24.079556      24.079506      24.039072      23.997156      23.953903      23.953979      23.997227      23.953850      23.997107      23.997078      23.953815      23.953802      23.953802      23.997070      23.997066      24.039001      24.039011      24.079479      24.079464      24.079462      24.039007      24.039030      24.079475      24.118288      24.155315      24.155331      24.118288      24.118301      24.118326      24.155397      24.155359      24.190493      24.190546      24.223644      24.223570      24.223503      24.190447      24.190411      24.223444      24.190378      24.223354      24.223394      24.190388      24.155315      24.118305      24.118340      24.155329      24.155361      24.118393      24.118471      24.155413      24.190405      24.190382      24.223326      24.223312      24.254044      24.282564      24.282667      24.254099      24.254164      24.254238      24.282890      24.282776      24.309256      24.309416      24.334021      24.333811      24.333597      24.309097      24.308941      24.333380      24.356289      24.356573      24.378672      24.378319      24.400387      24.423616      24.424112      24.400812      24.401217      24.424583      24.425030      24.401602      24.379333      24.379009      24.356846      24.357111      24.357368      24.357616      24.379944      24.379646      24.401970      24.425453      24.425856      24.402321      24.402655      24.426235      24.426596      24.402971      24.380503      24.380230      24.357857      24.358088      24.334816      24.334625      24.309891      24.310047      24.283377      24.254599      24.254501      24.283253      24.283129      24.254408      24.254320      24.283009      24.309574      24.334227      24.334429      24.309734      24.310499      24.335360      24.335527      24.310644      24.283873      24.255007      24.254904      24.283751      24.283627      24.254801      24.254698      24.283503      24.310202      24.310352      24.335184      24.335003      24.358309      24.358522      24.381012      24.380764      24.403273      24.426937      24.427258      24.403557      24.403828      24.427561      24.427847      24.404083      24.381475      24.381250      24.358728      24.358923      24.359110      24.359287      24.381889      24.381689      24.404325      24.428116      24.428368      24.404552      24.404766      24.428604      24.428823      24.404964      24.382259      24.382080      24.359457      24.359615      24.336134      24.311172      24.311049      24.335993      24.335690      24.335844      24.310919      24.310783      24.283993      24.284109      24.255211      24.255110      24.255312      24.284224      24.284332      24.255407      24.224331      24.224245      24.191055      24.191132      24.155903      24.118769      24.118702      24.155830      24.155760      24.118637      24.118572      24.155689      24.190897      24.224068      24.224157      24.190975      24.190607      24.223722      24.223806      24.190674      24.190746      24.223892      24.223980      24.190821      24.118513      24.155622      24.155558      24.118456      24.118404      24.155499      24.155443      24.118361      24.039030      24.079506      24.079542      24.039062      24.039101      24.079586      24.079638      24.039146      23.953920      23.997194      23.997150      23.953878      23.953842      23.997114      23.997086      23.953817      23.997297      23.954023      23.953970      23.997244      24.039200      24.079691      24.079750      24.039255      24.039314      24.079813      24.079874      24.039373      23.997414      23.997355      23.954081      23.954140      23.954199      23.954258      23.997534      23.997475      24.039434      24.079939      24.080002      24.039497      24.039557      24.080063      24.080122      24.039616      23.997650      23.954374      23.954317      23.997593      23.954428      23.997705      23.997759      23.954479      23.954527      23.954573      23.997852      23.997807      24.039774      24.039820      24.080332      24.080286      24.080235      24.039724      24.039671      24.080181      24.119085      24.156237      24.156296      24.119143      24.119194      24.119242      24.156401      24.156351      24.191608      24.191662      24.224901      24.224846      24.224785      24.191551      24.191490      24.224720      24.191357      24.224575      24.224649      24.191425      24.156176      24.119026      24.118965      24.156111      24.156042      24.118900      24.118834      24.155973      24.191210      24.191284      24.224497      24.224415      24.255501      24.284437      24.284538      24.255590      24.255676      24.255758      24.284721      24.284632      24.311506      24.311605      24.336618      24.336510      24.336391      24.311401      24.311291      24.336266      24.359766      24.359907      24.382586      24.382429      24.405151      24.429029      24.429220      24.405327      24.405487      24.429396      24.429558      24.405636      24.382866      24.382732      24.360039      24.360161      24.360271      24.360374      24.383104      24.382992      24.405773      24.429707      24.429842      24.405897      24.406010      24.429964      24.430073      24.406111      24.383299      24.383207      24.360468      24.360552      24.336973      24.336897      24.311857      24.311928      24.285015      24.256027      24.255968      24.284950      24.284880      24.255903      24.255833      24.284803      24.311697      24.336720      24.336813      24.311781      24.312090      24.337151      24.337194      24.312130      24.285202      24.256203      24.256168      24.285166      24.285122      24.256128      24.256081      24.285072      24.311989      24.312044      24.337101      24.337042      24.360626      24.360691      24.383451      24.383381      24.406200      24.430170      24.430254      24.406277      24.406343      24.430325      24.430384      24.406399      24.383564      24.383512      24.360746      24.360792      24.360830      24.360857      24.383635      24.383604      24.406443      24.430431      24.430468      24.406475      24.406498      24.430490      24.430502      24.406507      24.383663      24.383654      24.360876      24.360886      24.337278      24.312208      24.312199      24.337269      24.337227      24.337254      24.312183      24.312160      24.285231      24.285254      24.256250      24.256229      24.256266      24.285267      24.285275      24.256271      24.225130      24.225124      24.191874      24.191881      24.156610      24.11