<VTKFile type="UnstructuredGrid" version="1.0" byte_order="LittleEndian" header_type="UInt64">
  <UnstructuredGrid>
    <Piece NumberOfPoints="40528" NumberOfCells="18337">
      <CellData Scalars="Scalars_">
        <DataArray type="Float32" Name="Scalars_" format="ascii">
     19.871185      19.871191      19.841812      19.841805      19.792326      19.732700      19.732706      19.792332      19.792343      19.732716      19.732731      19.792360      19.841841      19.841824      19.871202      19.871222      19.871246      19.871281      19.841898      19.841866      19.792383      19.732754      19.732780      19.792414      19.792450      19.732815      19.732857      19.792496      19.841984      19.841936      19.871321      19.871368      19.871428      19.871494      19.842106      19.842039      19.792549      19.732908      19.732965      19.792610      19.792685      19.733036      19.733114      19.792768      19.842270      19.842182      19.871572      19.871664      19.871769      19.871887      19.842487      19.842371      19.792866      19.733206      19.733313      19.792976      19.793102      19.733433      19.733568      19.793245      19.842768      19.842619      19.872021      19.872173      19.872345      19.872536      19.843122      19.842934      19.793407      19.733723      19.733898      19.793589      19.793791      19.734095      19.734314      19.794020      19.843567      19.843332      19.872749      19.872988      19.873253      19.873547      19.844116      19.843826      19.794273      19.734560      19.734833      19.794554      19.794867      19.735138      19.735474      19.795212      19.844788      19.844435      19.873871      19.874228      19.874620      19.875051      19.845602      19.845177      19.795593      19.735846      19.736258      19.796013      19.796473      19.736708      19.737204      19.796976      19.846581      19.846069      19.875525      19.876040      19.876600      19.877211      19.847744      19.847137      19.797525      19.737745      19.738337      19.798124      19.798777      19.738979      19.739681      19.799484      19.849115      19.848402      19.877874      19.878592      19.806261      19.746433      19.747704      19.807529      19.857185      19.886677      19.885408      19.855917      19.854731      19.884222      19.883110      19.853621      19.803967      19.805075      19.745247      19.744139      19.743109      19.802933      19.801971      19.742151      19.741262      19.740440      19.800249      19.801077      19.850721      19.849888      19.879368      19.880203      19.881104      19.851618      19.852583      19.882072      19.750509      19.749062      19.808884      19.810328      19.859976      19.858538      19.888027      19.889465      19.892609      19.890991      19.861506      19.863127      19.813492      19.811863      19.752052      19.753693      19.757278      19.755432      19.815220      19.817051      19.866665      19.864847      19.894323      19.896135      19.900064      19.898048      19.868586      19.870613      19.821030      19.818987      19.759232      19.761297      19.838633      19.779154      19.782232      19.841658      19.890989      19.920296      19.917343      19.888010      19.885160      19.914516      19.911814      19.882437      19.832983      19.835743      19.776215      19.773411      19.770739      19.830351      19.827843      19.768194      19.765774      19.763475      19.823185      19.825455      19.874996      19.872749      19.902189      19.904423      19.906771      19.877357      19.879837      19.909233      19.788818      19.785452      19.844818      19.848118      19.897348      19.894102      19.923378      19.926594      19.933434      19.929943      19.900734      19.904261      19.855152      19.851562      19.792334      19.796005      19.803823      19.799831      19.858894      19.862791      19.911755      19.907932      19.937063      19.940840      19.948839      19.944763      19.915728      19.919857      19.871067      19.866848      19.807981      19.812311      19.066055      19.000593      19.006292      19.071493      19.136726      19.202059      19.197104      19.131538      19.126646      19.192423      19.188004      19.122034      19.056124      19.060938      18.995237      18.990206      18.924234      18.929497      18.863684      18.858166      18.791964      18.725592      18.731695      18.797762      18.803988      18.738276      18.745358      18.810659      18.875898      18.869589      18.935112      18.941095      18.947464      18.954227      18.889801      18.882629      18.817802      18.752966      18.761116      18.825436      18.833578      18.769814      18.779047      18.842253      18.905525      18.897427      18.961401      18.968990      19.032867      19.096830      19.089912      19.025620      19.018787      19.012352      19.077269      19.083401      19.148064      19.142229      19.207300      19.212849      19.218723      19.154253      19.160822      19.224945      19.289330      19.354082      19.348482      19.283434      19.277855      19.272572      19.338121      19.343166      19.408836      19.404001      19.470232      19.474884      19.479765      19.413919      19.419264      19.484886      19.550901      19.545975      19.612415      19.617168      19.683372      19.748863      19.744406      19.678776      19.674372      19.740131      19.736034      19.670156      19.603525      19.536781      19.541271      19.607870      19.595406      19.528412      19.532497      19.599373      19.666124      19.732109      19.728350      19.662266      19.658579      19.724752      19.721312      19.655056      19.588005      19.591619      19.524515      19.520802      19.453737      19.386927      19.390875      19.457561      19.465801      19.461580      19.395031      19.399403      19.333332      19.328789      19.262831      19.267569      19.258345      19.324478      19.320389      19.254099      19.250084      19.316515      19.312845      19.246286      19.242702      19.239319      19.306089      19.309372      19.376251      19.373058      19.440256      19.443367      19.446646      19.379622      19.383177      19.450102      19.517265      19.513903      19.581278      19.584560      19.651691      19.718023      19.714884      19.648485      19.645428      19.711887      19.709034      19.642517      19.575182      19.507666      19.510704      19.578154      19.569683      19.502054      19.504786      19.572361      19.639750      19.706316      19.703730      19.637119      19.634624      19.701275      19.698946      19.632261      19.564743      19.567144      19.499470      19.497026      19.429396      19.361956      19.364492      19.431885      19.437309      19.434521      19.367186      19.370039      19.302990      19.300066      19.233128      19.236130      19.230305      19.297312      19.294718      19.227654      19.160706      19.093815      19.096600      19.163422      19.169407      19.166319      19.099577      19.102757      19.036116      19.032841      18.966049      18.969429      18.962900      19.029779      19.026922      18.959969      18.892904      18.895914      18.828772      18.825682      18.758265      18.690619      18.693871      18.761435      18.764866      18.697399      18.701223      18.768574      18.835699      18.832106      18.899153      18.902637      18.906380      18.910397      18.843735      18.839571      18.772577      18.705366      18.709848      18.776897      18.781555      18.714697      18.719934      18.786570      18.853014      18.848209      18.914700      18.919306      18.985487      18.981064      19.047346      19.051598      19.117691      19.183830      19.179893      19.113604      19.109758      19.176186      19.172691      19.106146      19.039619      18.973047      18.976921      19.043358      19.013531      18.946327      18.948181      19.015362      19.082476      19.149578      19.147793      19.080667      19.078993      19.146135      19.144604      19.077448      19.010281      19.011839      18.944618      18.943048      18.875702      18.877283      18.809792      18.808199      18.740503      18.672588      18.674198      18.742105      18.743862      18.675968      18.677906      18.745781      18.813429      18.811531      18.879007      18.880884      18.882923      18.885132      18.817743      18.815496      18.747875      18.680029      18.682346      18.750158      18.752642      18.684874      18.687626      18.755339      18.822823      18.820181      18.887526      18.890112      18.957243      19.024260      19.021782      18.954710      18.952364      18.950190      19.017342      19.019478      19.086529      19.084427      19.151503      19.153568      19.155787      19.088789      19.091215      19.158163      19.225166      19.292282      19.289997      19.222837      19.220657      19.218624      19.285852      19.287855      19.355213      19.353239      19.420816      19.422766      19.424841      19.357321      19.359566      19.427050      19.494719      19.492544      19.560328      19.562471      19.630022      19.696737      19.694649      19.627907      19.625910      19.692675      19.690813      19.624029      19.556404      19.488573      19.490498      19.558306      19.552938      19.485073      19.486767      19.554615      19.622257      19.689056      19.687407      19.620594      19.619032      19.685854      19.684401      19.617571      19.549896      19.551367      19.483490      19.482012      19.414198      19.346558      19.348055      19.415686      19.418989      19.417282      19.349665      19.351391      19.283981      19.282236      19.214962      19.216728      19.213322      19.280611      19.279102      19.211802      19.210394      19.277702      19.276407      19.209093      19.207893      19.206791      19.274107      19.275209      19.342678      19.341576      19.409229      19.410332      19.411526      19.343874      19.345165      19.412813      19.480633      19.479351      19.547245      19.548525      19.616203      19.683039      19.681765      19.614927      19.613739      19.680578      19.679472      19.612635      19.544950      19.477055      19.478159      19.546055      19.542980      19.475090      19.476032      19.543926      19.611609      19.678444      19.677488      19.610659      19.609779      19.676605      19.675789      19.608969      19.541300      19.542105      19.474220      19.473421      19.405613      19.337976      19.338764      19.406404      19.408209      19.407269      19.339622      19.340557      19.273092      19.272160      19.204851      19.205778      19.204002      19.271307      19.270527      19.203230      19.136036      19.068890      19.069647      19.136803      19.138567      19.137644      19.070482      19.071400      19.004223      19.003311      18.936077      18.936983      18.935257      19.002483      19.001734      18.934517      18.867191      18.867922      18.800438      18.799719      18.732061      18.664192      18.664888      18.732771      18.733562      18.665668      18.666542      18.734446      18.802132      18.801241      18.868734      18.869633      18.870628      18.871725      18.804214      18.803122      18.735428      18.667517      18.668598      18.736515      18.737719      18.669798      18.671125      18.739044      18.806744      18.805418      18.872931      18.874252      18.941607      18.940289      19.007532      19.008848      19.076023      19.143187      19.141882      19.074713      19.073509      19.140680      19.139576      19.072407      19.005228      18.937983      18.939081      19.006329      17.614241      17.541050      17.542267      17.615469      17.688276      17.760708      17.759468      17.687042      17.685974      17.758392      17.757460      17.685055      17.612276      17.613184      17.540005      17.539112      17.538353      17.611502      17.610846      17.537712      17.537176      17.536730      17.609833      17.610294      17.683031      17.682554      17.754902      17.755392      17.755974      17.683598      17.684267      17.756659      17.828686      17.900351      17.899633      17.827984      17.827387      17.826881      17.898497      17.899019      17.970297      17.969757      18.040663      18.041220      18.041868      17.970926      17.971659      18.042618      18.043480      18.044468      17.973478      17.972506      17.901180      17.829500      17.830444      17.902138      17.903236      17.831532      17.832779      17.904493      17.975857      18.046871      18.045593      17.974590      18.186558      18.116247      18.117537      18.187855      18.257832      18.327478      18.326166      18.256527      18.255367      18.324997      18.323959      18.254339      18.184391      18.185408      18.115108      18.114107      18.113230      18.183498      18.182716      18.112463      18.111797      18.111223      18.181442      18.182034      18.251936      18.251329      18.320889      18.321512      18.322226      18.252634      18.253431      18.323038      18.392326      18.461306      18.460468      18.391500      18.390772      18.390131      18.459070      18.459724      18.528385      18.527716      18.596085      18.596767      18.597536      18.529140      18.529993      18.598398      18.599363      18.600439      18.532015      18.530947      18.462252      18.393259      18.394308      18.463310      18.464495      18.395485      18.396801      18.465815      18.534529      18.602959      18.601635      18.533205      18.479946      18.411039      18.413988      18.482851      18.551403      18.619656      18.616848      18.548546      18.545935      18.614279      18.611927      18.543554      18.474888      18.405920      18.408358      18.477299      18.470709      18.401709      18.403709      18.472698      18.541384      18.609781      18.607824      18.539410      18.537619      18.606043      18.604425      18.535995      18.467281      18.398268      18.399899      18.468908      18.120625      18.118990      18.189314      18.190950      18.260931      18.259296      18.328943      18.330576      18.334408      18.332394      18.262754      18.264782      18.194818      18.192780      18.122456      18.124502      18.129322      18.126785      18.197086      18.199602      18.269522      18.267033      18.336637      18.339102      18.344810      18.341820      18.272276      18.275312      18.205471      18.202389      18.132137      18.135256      17.919237      17.847647      17.850922      17.922441      17.993692      18.064651      18.061510      17.990532      17.987677      18.058676      18.056124      17.985109      17.913759      17.842081      17.844707      17.916349      17.909378      17.837664      17.839741      17.911442      17.982809      18.053831      18.051779      17.980751      17.978920      18.049948      18.048317      17.977295      17.905924      17.834204      17.835825      17.907545      17.545313      17.543680      17.616888      17.618525      17.691328      17.689697      17.762131      17.763754      17.767702      17.765604      17.693190      17.695314      17.622549      17.620401      17.547197      17.549362      17.554699      17.551849      17.625006      17.627804      17.700462      17.697727      17.770075      17.772753      17.779135      17.775761      17.703556      17.707045      17.634609      17.630991      17.557964      17.561705      17.676184      17.608032      17.618284      17.684679      17.752737      17.822409      17.815176      17.745235      17.738194      17.808531      17.802423      17.731668      17.661037      17.668280      17.598692      17.590349      17.582987      17.654480      17.648600      17.576538      17.570906      17.565992      17.638716      17.643360      17.715361      17.710968      17.782900      17.787086      17.791721      17.720259      17.725691      17.796827      17.867798      17.938833      17.934166      17.862980      17.858568      17.854555      17.925985      17.929888      18.001026      17.997185      18.068121      18.071951      18.076170      18.005236      18.009830      18.080816      18.085932      18.091579      18.020224      18.014826      17.943903      17.873026      17.878651      17.949387      17.955305      17.884640      17.890921      17.961695      18.032146      18.104815      18.097834      18.026012      18.238184      18.168676      18.175873      18.245020      18.313347      18.381668      18.375572      18.306965      18.301105      18.369940      18.364763      18.295746      18.226416      18.232004      18.162273      18.156540      18.151381      18.221359      18.216782      18.146725      18.142515      18.138704      18.208878      18.212635      18.282347      18.278660      18.348101      18.351713      18.355677      18.286400      18.290855      18.360018      18.428907      18.497480      18.493322      18.424658      18.420773      18.417225      18.486032      18.489515      18.557938      18.554527      18.622715      18.626047      18.629675      18.561659      18.565714      18.633617      18.637899      18.642548      18.574940      18.570131      18.502020      18.433550      18.438616      18.506973      18.512373      18.444139      18.450155      18.518265      18.585873      18.653063      18.647591      18.580175      18.579582      18.514658      18.531973      18.592363      18.654444      18.716848      18.706570      18.643169      18.632725      18.697023      18.688171      18.623114      18.557421      18.489954      18.501141      18.567921      18.539459      18.471653      18.480274      18.547979      18.614300      18.679981      18.672417      18.606232      18.598846      18.665436      18.658998      18.592079      18.524696      18.456703      18.463842      18.531734      18.193298      18.184015      18.252571      18.260887      18.327675      18.320255      18.388231      18.395237      18.410267      18.402622      18.335546      18.343754      18.279861      18.269991      18.203949      18.216225      18.246731      18.230404      18.290396      18.301355      18.360312      18.352106      18.417957      18.425318      18.435965      18.431704      18.367989      18.374708      18.322098      18.312277      18.267347      18.296015      18.033348      17.997011      18.006035      18.132420      18.175993      18.122906      18.117947      18.170860      18.162834      18.011068      17.991188      18.026093      17.985250      17.909344      17.913292      17.996216      18.054504      18.145761      18.132528      18.050522      18.044815      18.121775      18.112698      18.038504      17.968645      17.897356      17.903673      17.976355      17.640257      17.629194      17.693642      17.702921      17.768578      17.760582      17.830341      17.839228      17.862625      17.849609      17.776369      17.783304      17.722075      17.712391      17.650658      17.659307      17.664745      17.732355      17.744350      17.788094      17.880602      17.912933      17.964911      17.935839      17.845289      17.753593      17.755798      17.729246      18.248491      18.317890      18.317829      18.248440      18.178726      18.108675      18.108706      18.178766      18.178825      18.108755      18.108826      18.178907      18.248657      18.248562      18.317974      18.318081      18.387188      18.387070      18.455860      18.455992      18.524506      18.592745      18.592588      18.524363      18.524244      18.592461      18.592356      18.524151      18.455673      18.455755      18.386974      18.386904      18.386850      18.386812      18.455563      18.455608      18.524078      18.592272      18.592205      18.524021      18.523979      18.592155      18.592117      18.523951      18.455509      18.455530      18.386789      18.386776      18.317739      18.248386      18.248383      18.317743      18.317787      18.317759      18.248388      18.248407      18.178701      18.178692      18.108660      18.108662      18.108669      18.178694      18.178705      18.108686      18.038324      17.967607      17.967577      18.038300      18.038277      18.038282      17.967554      17.967539      17.896444      17.896465      17.825012      17.824984      17.825047      17.896496      17.896532      17.825089      17.753271      17.753225      17.681023      17.681072      17.608490      17.535513      17.535456      17.608437      17.608387      17.535404      17.535357      17.608343      17.680941      17.753151      17.753183      17.680979      17.680891      17.753115      17.753126      17.680910      17.608309      17.535316      17.535288      17.608284      17.608274      17.535271      17.535271      17.608280      17.680901      17.680887      17.753119      17.753139      17.825001      17.896496      17.896456      17.824972      17.824961      17.824966      17.896435      17.896437      17.967548      17.967537      18.038282      18.038301      18.038342      17.967577      17.967627      18.038401      18.038486      17.967699      17.967800      18.038599      18.038935      18.038748      17.967936      17.968107      17.896927      17.896769      17.825241      17.825388      17.825132      17.896646      17.896557      17.825054      17.753181      17.753248      17.680992      17.680933      17.608305      17.535288      17.535330      17.608355      17.608433      17.535398      17.535501      17.608543      17.681202      17.753481      17.753347      17.681080      17.681572      17.753878      17.753654      17.681364      17.608696      17.535643      17.535828      17.608892      17.609142      17.536064      17.536362      17.609453      17.682159      17.681835      17.754154      17.754492      17.826456      17.898056      17.897686      17.826101      17.825811      17.825575      17.897129      17.897379      17.968590      17.968325      18.039165      18.039446      18.039785      17.968912      17.969297      18.040188      18.110731      18.110312      18.180496      18.180933      18.250801      18.320345      18.319876      18.250349      18.249960      18.319471      18.319126      18.249630      18.179811      18.109659      18.109955      18.180124      18.109413      18.179550      18.179335      18.109211      18.109049      18.108923      18.179018      18.179157      18.248934      18.248779      18.318214      18.318382      18.318586      18.249123      18.249353      18.318832      18.387997      18.456858      18.456581      18.387735      18.387518      18.387337      18.456154      18.456348      18.524889      18.524681      18.592934      18.593155      18.593416      18.525137      18.525427      18.593721      18.526157      18.594481      18.594074      18.525764      18.457180      18.388306      18.388666      18.457558      18.457993      18.389086      18.389572      18.458496      18.527126      18.526609      18.594948      18.595480      18.663574      18.663029      18.730871      18.731432      18.799076      18.866537      18.865952      18.798504      18.797995      18.865431      18.864969      18.797544      18.729940      18.662127      18.662548      18.730377      18.661758      18.729559      18.729227      18.661438      18.661163      18.660929      18.728689      18.728937      18.796501      18.796240      18.863613      18.863886      18.864201      18.796804      18.797150      18.864561      18.931826      18.998987      18.998602      18.931454      18.931128      18.930840      18.997965      18.998262      19.065342      19.065031      19.132093      19.132416      19.132778      19.065693      19.066090      19.133184      19.067032      19.134150      19.133640      19.066534      18.999420      18.932247      18.932722      18.999907      19.000450      18.933254      18.933851      19.001059      19.068205      19.067587      19.134716      19.135344      19.202528      19.269817      19.269171      19.201891      19.201315      19.200796      19.268057      19.268585      19.336010      19.335470      19.403072      19.403622      19.404224      19.336605      19.337259      19.404886      19.472689      19.472017      19.539883      19.540562      19.608221      19.675035      19.674343      19.607536      19.606907      19.673706      19.673122      19.606333      19.538696      19.539263      19.471405      19.470848      19.470343      19.469883      19.537712      19.538181      19.605808      19.672590      19.672104      19.605331      19.604898      19.671661      19.671261      19.604506      19.536907      19.537289      19.469469      19.469097      19.401360      19.401722      19.334150      19.333797      19.266424      19.199205      19.199537      19.266766      19.267151      19.199911      19.200329      19.267578      19.334984      19.402576      19.402126      19.334545      19.332952      19.400484      19.400255      19.332733      19.265398      19.198221      19.198421      19.265608      19.265848      19.198650      19.198912      19.266119      19.333483      19.333202      19.400743      19.401033      19.468761      19.468462      19.536253      19.536562      19.604153      19.670897      19.670568      19.603834      19.603546      19.670275      19.670010      19.603291      19.535728      19.535975      19.468193      19.467955      19.467743      19.467556      19.535313      19.535507      19.603062      19.669771      19.669559      19.602858      19.602678      19.669371      19.669205      19.602518      19.534988      19.535139      19.467392      19.467249      19.399582      19.332094      19.332222      19.399719      19.400053      19.399876      19.332371      19.332539      19.265215      19.265055      19.197895      19.198048      19.197763      19.264914      19.264793      19.197653      19.130617      19.130722      19.063730      19.063635      18.996647      18.929605      18.929684      18.996735      18.996840      18.929779      18.929893      18.996964      19.063976      19.130987      19.130844      19.063843      19.064758      19.131809      19.131559      19.064520      19.064312      19.131342      19.131151      19.064133      18.930029      18.997108      18.997278      18.930187      18.930374      18.997477      18.997704      18.930590      18.796015      18.863375      18.863171      18.795822      18.795658      18.862995      18.862846      18.795521      18.660303      18.728016      18.728144      18.660419      18.660559      18.728296      18.728476      18.660728      18.727827      18.660133      18.660208      18.727911      18.795406      18.862720      18.862616      18.795311      18.795233      18.862530      18.862459      18.795172      18.727705      18.727758      18.660074      18.660028      18.659996      18.659971      18.727633      18.727663      18.795122      18.862404      18.862358      18.795086      18.795057      18.862324      18.862297      18.795036      18.727596      18.659948      18.659956      18.727612      18.659945      18.727589      18.727585      18.659945      18.659950      18.659956      18.727587      18.727583      18.795010      18.795008      18.862251      18.862257      18.862265      18.795013      18.795023      18.862278      18.929390      18.996401      18.996376      18.929373      18.929359      18.929350      18.996346      18.996359      19.063303      19.063286      19.130220      19.130241      19.130268      19.063324      19.063353      19.130301      19.063433      19.130394      19.130342      19.063389      18.996429      18.929415      18.929447      18.996468      18.996517      18.929489      18.929541      18.996576      19.063555      19.063488      19.130455      19.130529      19.197556      19.264690      19.264601      19.197475      19.197407      19.197350      19.264463      19.264526      19.331804      19.331736      19.399197      19.399273      19.399361      19.331886      19.331982      19.399464      19.467123      19.467012      19.534739      19.534855      19.602379      19.669056      19.668926      19.602255      19.602148      19.668814      19.668713      19.602053      19.534550      19.534637      19.466917      19.466835      19.466766      19.466705      19.534409      19.534473      19.601973      19.668627      19.668552      19.601902      19.601843      19.668488      19.668432      19.601791      19.534306      19.534353      19.466654      19.466612      19.398993      19.399031      19.331585      19.331551      19.264299      19.197205      19.197231      19.264328      19.264366      19.197262      19.197302      19.264410      19.331676      19.399132      19.399076      19.331627      19.331482      19.398912      19.398895      19.331467      19.264229      19.197147      19.197157      19.264240      19.264256      19.197168      19.197186      19.264275      19.331522      19.331499      19.398933      19.398960      19.466576      19.466545      19.534233      19.534266      19.601748      19.668386      19.668346      19.601711      19.601683      19.668314      19.668289      19.601658      19.534185      19.534206      19.466522      19.466503      19.466488      19.466476      19.534155      19.534168      19.601641      19.668268      19.668255      19.601627      19.601618      19.668245      19.668240      19.601614      19.534143      19.534147      19.466471      19.466467      19.398865      19.331442      19.331444      19.398869      19.398884      19.398874      19.331450      19.331457      19.264219      19.264214      19.197136      19.197142      19.197132      19.264210      19.264208      19.197132      19.130163      19.130163      19.063244      19.063244      18.996319      18.92