<VTKFile type="UnstructuredGrid" version="1.0" byte_order="LittleEndian" header_type="UInt64">
  <UnstructuredGrid>
    <Piece NumberOfPoints="40528" NumberOfCells="18337">
      <CellData Scalars="Scalars_">
        <DataArray type="Float32" Name="Scalars_" format="ascii">
     16.956797      16.956804      16.924986      16.924978      16.870249      16.802471      16.802477      16.870256      16.870272      16.802492      16.802513      16.870295      16.925026      16.925003      16.956821      16.956846      16.956881      16.956924      16.925102      16.925060      16.870325      16.802544      16.802582      16.870365      16.870415      16.802629      16.802687      16.870476      16.925217      16.925154      16.956978      16.957041      16.957117      16.957207      16.925379      16.925291      16.870546      16.802753      16.802834      16.870630      16.870728      16.802927      16.803034      16.870840      16.925594      16.925478      16.957310      16.957428      16.957565      16.957718      16.925879      16.925728      16.870968      16.803156      16.803297      16.871115      16.871281      16.803457      16.803637      16.871468      16.926243      16.926050      16.957893      16.958090      16.958311      16.958557      16.926704      16.926460      16.871679      16.803841      16.804071      16.871916      16.872181      16.804329      16.804615      16.872477      16.927277      16.926975      16.958832      16.959139      16.959478      16.959854      16.927984      16.927612      16.872805      16.804935      16.805292      16.873169      16.873571      16.805687      16.806124      16.874016      16.928846      16.928394      16.960268      16.960726      16.961226      16.961775      16.929888      16.929342      16.874506      16.806604      16.807135      16.875044      16.875631      16.807714      16.808352      16.876276      16.931133      16.930483      16.962376      16.963030      16.963743      16.964518      16.932613      16.931843      16.876978      16.809046      16.809803      16.877743      16.878572      16.810627      16.811522      16.879473      16.934353      16.933449      16.965357      16.966267      16.888062      16.820107      16.821716      16.889666      16.944553      16.976473      16.974874      16.942953      16.941454      16.973377      16.971975      16.940052      16.885159      16.886560      16.818602      16.817196      16.815886      16.883848      16.882629      16.814669      16.813538      16.812490      16.880445      16.881496      16.936386      16.935331      16.967247      16.968306      16.969442      16.937523      16.938742      16.970665      16.825270      16.823437      16.891376      16.893198      16.948072      16.946259      16.978176      16.979986      16.983948      16.981909      16.949999      16.952044      16.897194      16.895136      16.827221      16.829294      16.833828      16.831495      16.899374      16.901682      16.956501      16.954210      16.986107      16.988388      16.993340      16.990799      16.958923      16.961477      16.906702      16.904123      16.836296      16.838905      16.928919      16.861479      16.865374      16.932739      16.987186      17.018867      17.015135      16.983421      16.979824      17.011566      17.008154      16.976385      16.921783      16.925268      16.857759      16.854214      16.850834      16.918461      16.915295      16.847618      16.844561      16.841658      16.909420      16.912283      16.967001      16.964169      16.996016      16.998833      17.001791      16.969978      16.973106      17.004898      16.873720      16.869453      16.936737      16.940914      16.995228      16.991119      17.022764      17.026834      17.035500      17.031076      16.999514      17.003983      16.949827      16.945274      16.878180      16.882837      16.892776      16.887701      16.954575      16.959522      17.013491      17.008640      17.040108      17.044903      17.055080      17.049892      17.018541      17.023794      16.970049      16.964680      16.898071      16.903591      15.987841      15.905068      15.912477      15.994929      16.077221      16.159380      16.152893      16.070438      16.064037      16.146767      16.140978      16.057999      15.974853      15.981154      15.898081      15.891500      15.807908      15.814797      15.731288      15.724050      15.639880      15.555338      15.563407      15.647511      15.655659      15.572053      15.581302      15.664343      15.747186      15.738995      15.822118      15.829884      15.838108      15.846798      15.765077      15.755876      15.673580      15.591170      15.601667      15.683387      15.693773      15.612787      15.624499      15.704756      15.785039      15.774796      15.855960      15.865588      15.946658      16.027740      16.018820      15.937397      15.928624      15.920323      16.002439      16.010395      16.092018      16.084408      16.166243      16.173508      16.181200      16.100084      16.108637      16.189350      16.269987      16.350672      16.343328      16.262251      16.254932      16.248011      16.329769      16.336369      16.417845      16.411541      16.493280      16.499317      16.505661      16.424480      16.431463      16.512327      16.593098      16.586718      16.667324      16.673452      16.752800      16.830114      16.824415      16.746899      16.741255      16.818958      16.813732      16.735857      16.655884      16.574831      16.580633      16.661470      16.645460      16.564035      16.569304      16.650549      16.730700      16.808731      16.803946      16.725771      16.721064      16.799370      16.794998      16.716572      16.635979      16.640606      16.559017      16.554239      16.471924      16.389338      16.394463      16.476868      16.487534      16.482067      16.399864      16.405552      16.323511      16.317579      16.235258      16.241459      16.229391      16.311954      16.306625      16.223841      16.218594      16.301579      16.296801      16.213634      16.208950      16.204533      16.288012      16.292282      16.375496      16.371361      16.454529      16.458538      16.462769      16.379864      16.384474      16.467228      16.549696      16.545374      16.627373      16.631571      16.712286      16.790821      16.786837      16.708200      16.704309      16.783037      16.779419      16.700607      16.619585      16.537371      16.541267      16.623381      16.612562      16.530172      16.533674      16.615982      16.697086      16.775974      16.772699      16.693745      16.690573      16.769588      16.766636      16.687567      16.606258      16.609324      16.526859      16.523726      16.440536      16.356985      16.360271      16.443741      16.450731      16.447138      16.363756      16.367451      16.283979      16.280176      16.196444      16.200367      16.192755      16.276592      16.273218      16.189287      16.105190      16.020895      16.024570      16.108757      16.116611      16.112560      16.028496      16.032682      15.948532      15.944201      15.859626      15.864110      15.855437      15.940147      15.936359      15.851530      15.766354      15.770386      15.684945      15.680780      15.594762      15.508248      15.512690      15.599063      15.603703      15.517494      15.522684      15.608704      15.694245      15.689427      15.774717      15.779365      15.784343      15.789669      15.704967      15.699419      15.614086      15.528285      15.534323      15.619871      15.626083      15.540826      15.547821      15.632746      15.717263      15.710909      15.795361      15.801435      15.885307      15.879488      15.963334      15.968918      16.052305      16.135513      16.130360      16.046942      16.041893      16.125498      16.120920      16.037144      15.953156      15.868905      15.874026      15.958084      15.918513      15.833239      15.835737      15.920964      16.005880      16.090538      16.088177      16.003477      16.001249      16.085987      16.083956      15.999187      15.914154      15.916247      15.830933      15.828808      15.743098      15.745255      15.659165      15.656976      15.570396      15.483319      15.485573      15.572618      15.575046      15.488040      15.490736      15.577693      15.664149      15.661552      15.747602      15.750149      15.752910      15.755897      15.670028      15.666969      15.580573      15.493677      15.496881      15.583704      15.587101      15.500364      15.504147      15.590781      15.676918      15.673339      15.759124      15.762605      15.847890      15.932823      15.929528      15.844503      15.841357      15.838440      15.923610      15.926460      16.011257      16.008472      16.093075      16.095800      16.098721      16.014250      16.017460      16.101847      16.186033      16.270048      16.267073      16.182985      16.180132      16.177465      16.261671      16.264282      16.348253      16.345694      16.429478      16.431992      16.434668      16.350985      16.353891      16.437513      16.520769      16.517981      16.600622      16.603359      16.684723      16.763840      16.761194      16.682034      16.679495      16.758694      16.756332      16.677101      16.595613      16.512884      16.515354      16.598043      16.591185      16.508392      16.510565      16.593328      16.674849      16.754107      16.752012      16.672729      16.670742      16.750044      16.748198      16.668879      16.587292      16.589174      16.506357      16.504454      16.420929      16.337015      16.338964      16.422853      16.427122      16.424915      16.341055      16.343296      16.259230      16.256952      16.172659      16.174978      16.170504      16.254829      16.252855      16.168503      16.166647      16.251022      16.249323      16.164930      16.163345      16.161884      16.246300      16.247751      16.331961      16.330519      16.414488      16.415922      16.417469      16.333521      16.335203      16.419136      16.502680      16.501026      16.583893      16.585533      16.667135      16.746468      16.744848      16.665506      16.663988      16.743338      16.741928      16.662575      16.580946      16.498064      16.499489      16.582367      16.578409      16.495520      16.496742      16.579630      16.661261      16.740618      16.739399      16.660042      16.658915      16.738270      16.737226      16.657873      16.576242      16.577282      16.494392      16.493355      16.409773      16.325796      16.326832      16.410810      16.413162      16.411938      16.327961      16.329187      16.244963      16.243732      16.159306      16.160540      16.158176      16.242603      16.241570      16.157145      16.072523      15.987679      15.988707      16.073553      16.075920      16.074684      15.989838      15.991077      15.905970      15.904726      15.819301      15.820547      15.818170      15.903595      15.902569      15.817146      15.731362      15.732383      15.646188      15.645171      15.558528      15.471394      15.472401      15.559541      15.560667      15.473525      15.474775      15.561918      15.648566      15.647317      15.733514      15.734761      15.736136      15.737648      15.651467      15.649947      15.563302      15.476164      15.477700      15.564832      15.566516      15.479397      15.481265      15.568367      15.654971      15.653138      15.739305      15.741118      15.826854      15.825061      15.910452      15.912226      15.997284      16.082077      16.080341      15.995529      15.993916      16.078741      16.077271      15.992435      15.907332      15.821917      15.823418      15.908824      14.095555      13.997310      13.999355      14.097596      14.194961      14.291500      14.289495      14.192936      14.191157      14.287729      14.286178      14.189601      14.092209      14.093768      13.995523      13.993968      13.992620      14.090852      14.089678      13.991455      13.990453      13.989596      14.087797      14.088665      14.186044      14.185166      14.281727      14.282612      14.283637      14.187063      14.188243      14.284820      14.380610      14.475635      14.474442      14.379424      14.378392      14.377499      14.472502      14.473404      14.567664      14.566751      14.660263      14.661187      14.662245      14.568712      14.569910      14.663451      14.664822      14.666373      14.572823      14.571275      14.476995      14.381968      14.383515      14.478540      14.480291      14.385272      14.387259      14.482267      14.576541      14.670087      14.668121      14.574571      14.853067      14.760951      14.762913      14.855024      14.946433      15.037158      15.035219      14.944485      14.942739      15.033479      15.031921      14.941181      14.849762      14.851319      14.759202      14.757648      14.756270      14.848380      14.847157      14.755055      14.753987      14.753052      14.845132      14.846079      14.937477      14.936519      15.027231      15.028199      15.029295      14.938564      14.939795      15.030531      15.120608      15.210047      15.208802      15.119368      15.118264      15.117287      15.206706      15.207692      15.296507      15.295513      15.383733      15.384734      15.385854      15.297623      15.298870      15.387104      15.388494      15.390038      15.301811      15.300262      15.211439      15.122000      15.123556      15.212993      15.214719      15.125290      15.127217      15.216634      15.305429      15.393630      15.391745      15.303529      15.236751      15.147639      15.151799      15.240825      15.329207      15.416969      15.413085      15.325225      15.321573      15.409516      15.406241      15.318230      15.229613      15.140367      15.143837      15.233022      15.223669      15.134330      15.137205      15.226503      15.315173      15.403241      15.400497      15.312383      15.309841      15.397991      15.395708      15.307528      15.218753      15.129355      15.131720      15.221092      14.767554      14.765107      14.857207      14.859638      14.951015      14.948604      15.039312      15.041701      15.047259      15.044344      14.953687      14.956642      14.865329      14.862338      14.770276      14.773296      14.780333      14.776640      14.868634      14.872281      14.963492      14.959902      15.050470      15.054001      15.062119      15.057875      14.967440      14.971771      14.880713      14.876297      14.784405      14.788886      14.504340      14.409704      14.414450      14.508966      14.602925      14.696269      14.691748      14.598368      14.594220      14.687636      14.683908      14.590457      14.496316      14.401503      14.405396      14.500131      14.489767      14.394842      14.397994      14.492870      14.587053      14.680534      14.677490      14.583984      14.581224      14.674749      14.672289      14.578752      14.484490      14.389501      14.392020      14.486982      14.004354      14.001692      14.099920      14.102558      14.199855      14.197257      14.293767      14.296323      14.302411      14.299194      14.202785      14.206080      14.108921      14.105546      14.007380      14.010813      14.019106      14.014703      14.112727      14.117010      14.213916      14.209778      14.306006      14.310010      14.319378      14.314457      14.218534      14.223674      14.127213      14.121820      14.024086      14.029717      14.185342      14.095046      14.108761      14.196618      14.286756      14.379022      14.369361      14.276781      14.267309      14.360405      14.352091      14.258430      14.164808      14.174701      14.082369      14.070874      14.060575      14.155722      14.147450      14.051407      14.043279      14.036083      14.133245      14.139973      14.235676      14.229375      14.324805      14.330767      14.337289      14.242606      14.250190      14.344392      14.438240      14.532063      14.525568      14.431543      14.425352      14.419660      14.514034      14.519563      14.613365      14.607917      14.701233      14.706673      14.712626      14.619291      14.625711      14.719136      14.726256      14.734055      14.640059      14.632634      14.539054      14.445435      14.453106      14.546549      14.554559      14.461202      14.469625      14.563117      14.656250      14.752097      14.742622      14.647955      14.926259      14.835556      14.845317      14.935507      15.024300      15.112924      15.104686      15.015687      15.007712      15.097026      15.089933      15.000360      14.910132      14.917824      14.826788      14.818871      14.811690      14.903118      14.896721      14.805164      14.799224      14.793813      14.885563      14.890885      14.981716      14.976520      15.066763      15.071836      15.077367      14.987398      14.993600      15.083390      15.172586      15.261123      15.255387      15.166706      15.161303      15.156343      15.245270      15.250114      15.338264      15.333545      15.421191      15.425774      15.430743      15.343392      15.348960      15.436126      15.441950      15.448248      15.361548      15.355000      15.267354      15.178976      15.185912      15.274121      15.281466      15.193432      15.201575      15.289438      15.376331      15.462399      15.455051      15.368644      15.370069      15.286532      15.308676      15.386359      15.465812      15.545389      15.532331      15.451465      15.438056      15.520100      15.508667      15.425607      15.341425      15.254490      15.269077      15.355064      15.317799      15.230352      15.241765      15.329053      15.414098      15.498008      15.488090      15.403480      15.393689      15.478876      15.470326      15.384661      15.298099      15.210393      15.219952      15.307520      14.868607      14.856256      14.945629      14.956676      15.043387      15.033545      15.121729      15.131063      15.150903      15.140841      15.053737      15.064435      14.981558      14.968665      14.882653      14.898727      14.938359      14.917194      14.995214      15.009327      15.085739      15.075226      15.160969      15.170559      15.184355      15.178845      15.095490      15.103943      15.035860      15.023320      14.965012      15.001998      14.654100      14.603545      14.614310      14.782141      14.844076      14.770473      14.764375      14.837703      14.827875      14.626212      14.596463      14.645030      14.593773      14.493986      14.499137      14.607621      14.685884      14.805948      14.788819      14.680679      14.673159      14.774734      14.762686      14.664772      14.572312      14.478189      14.486540      14.582364      14.137584      14.123159      14.208353      14.220331      14.307507      14.297082      14.389529      14.401207      14.431597      14.414749      14.317586      14.326496      14.244450      14.232365      14.150997      14.162051      14.168953      14.257033      14.271513      14.332619      14.454683      14.496299      14.561853      14.525197      14.404792      14.281896      14.285582      14.248501      14.931666      15.022234      15.022099      14.931541      14.840310      14.748384      14.748487      14.840424      14.840569      14.748621      14.748792      14.840751      14.932018      14.931824      15.022403      15.022611      15.112548      15.112329      15.201620      15.201853      15.290548      15.378660      15.378402      15.290303      15.290097      15.378184      15.378001      15.289927      15.201267      15.201427      15.112146      15.112000      15.111881      15.111789      15.201035      15.201138      15.289786      15.377851      15.377726      15.289673      15.289582      15.377625      15.377546      15.289512      15.200894      15.200955      15.111719      15.111667      15.021806      14.931289      14.931323      15.021849      15.021991      15.021910      14.931374      14.931446      14.840224      14.840162      14.748257      14.748309      14.748222      14.840120      14.840095      14.748205      14.655602      14.562270      14.562272      14.655612      14.655682      14.655638      14.562289      14.562325      14.468222      14.468195      14.373338      14.373357      14.373335      14.468185      14.468190      14.373345      14.277719      14.277702      14.181272      14.181293      14.084049      13.985972      13.985944      14.084024      14.084011      13.985927      13.985924      14.084013      14.181271      14.277712      14.277699      14.181263      14.181346      14.277802      14.277745      14.181296      14.084034      13.985940      13.985977      14.084077      14.084147      13.986041      13.986137      14.084249      14.181533      14.181423      14.277886      14.278004      14.373682      14.468583      14.468446      14.373554      14.373462      14.373397      14.468270      14.468343      14.562464      14.562382      14.655747      14.655840      14.655963      14.562576      14.562724      14.656121      14.656322      14.562912      14.563147      14.656568      14.657230      14.656869      14.563435      14.563784      14.469595      14.469259      14.374325      14.374650      14.374061      14.468983      14.468760      14.373848      14.278161      14.278363      14.181873      14.181681      14.084390      13.986269      13.986445      14.084574      14.084808      13.986671      13.986956      14.085102      14.182421      14.278931      14.278617      14.182117      14.183242      14.279773      14.279313      14.182793      14.085464      13.987308      13.987736      14.085902      14.086430      13.988252      13.988867      14.087056      14.184417      14.183779      14.280320      14.280968      14.376730      14.471723      14.471054      14.376073      14.375514      14.375043      14.470000      14.470483      14.564696      14.564201      14.657661      14.658171      14.658767      14.565280      14.565961      14.659460      14.752236      14.751530      14.843584      14.844304      14.935679      15.026380      15.025634      14.934946      14.934309      15.024983      15.024419      14.933759      14.842423      14.750397      14.750919      14.842960      14.749952      14.841965      14.841576      14.749577      14.749263      14.749003      14.840976      14.841249      14.932542      14.932256      15.022861      15.023160      15.023516      14.932882      14.933286      15.023932      15.113924      15.203283      15.202839      15.113494      15.113125      15.112812      15.202129      15.202456      15.291178      15.290838      15.378963      15.379315      15.379725      15.291574      15.292031      15.380196      15.293162      15.381351      15.380735      15.292559      15.203797      15.114425      15.115003      15.204388      15.205064      15.115665      15.116424      15.205833      15.294631      15.293850      15.382051      15.382842      15.470494      15.469694      15.556812      15.557621      15.644258      15.730443      15.729618      15.643440      15.642710      15.728879      15.728220      15.642061      15.555453      15.468356      15.468984      15.556091      15.467804      15.554889      15.554393      15.467320      15.466899      15.466533      15.553580      15.553959      15.640532      15.640141      15.726254      15.726657      15.727115      15.640978      15.641485      15.727633      15.813377      15.898762      15.898221      15.812847      15.812378      15.811963      15.897316      15.897741      15.982795      15.982359      16.067141      16.067587      16.068089      15.983286      15.983836      16.068647      15.985138      16.069967      16.069273      15.984452      15.899368      15.813973      15.814642      15.900045      15.900801      15.815390      15.816221      15.901639      15.986745      15.985900      16.070736      16.071587      16.156204      16.240625      16.239765      16.155348      16.154573      16.153872      16.238274      16.238983      16.323196      16.322479      16.406435      16.407158      16.407953      16.323984      16.324850      16.408823      16.492401      16.491526      16.574406      16.575285      16.656912      16.736261      16.735373      16.656027      16.655216      16.734554      16.733803      16.654472      16.572863      16.573599      16.490726      16.489996      16.489330      16.488728      16.571579      16.572191      16.653791      16.733116      16.732489      16.653172      16.652607      16.731916      16.731396      16.652096      16.570520      16.571022      16.488180      16.487686      16.404160      16.404644      16.320715      16.320238      16.236069      16.151701      16.152159      16.236534      16.237055      16.152668      16.153238      16.237633      16.321831      16.405779      16.405182      16.321243      16.319092      16.402983      16.402672      16.318790      16.234659      16.150333      16.150614      16.234951      16.235281      16.150934      16.151295      16.235651      16.319813      16.319431      16.403332      16.403723      16.487240      16.486841      16.569656      16.570065      16.651632      16.730923      16.730495      16.651215      16.650837      16.730108      16.729761      16.650497      16.568958      16.569288      16.486483      16.486162      16.485876      16.485624      16.568401      16.568665      16.650196      16.729450      16.729170      16.649925      16.649683      16.728922      16.728699      16.649469      16.567965      16.568171      16.485399      16.485203      16.401749      16.317902      16.318083      16.401937      16.402397      16.402153      16.318289      16.318523      16.234402      16.234177      16.149870      16.150085      16.149681      16.233978      16.233807      16.149519      16.065037      16.065189      15.980480      15.980335      15.895373      15.810105      15.810232      15.895510      15.895670      15.810382      15.810559      15.895857      15.980846      16.065575      16.065369      15.980650      15.981974      16.066744      16.066393      15.981633      15.981335      16.066084      16.065813      15.981073      15.810765      15.896073      15.896324      15.811005      15.811282      15.896611      15.896941      15.811600      15.639800      15.725902      15.725595      15.639505      15.639252      15.725329      15.725101      15.639034      15.465523      15.552522      15.552728      15.465716      15.465947      15.552969      15.553252      15.466217      15.552202      15.465225      15.465360      15.552348      15.638849      15.724906      15.724739      15.638694      15.638563      15.724599      15.724482      15.638455      15.551984      15.552082      15.465116      15.465026      15.464955      15.464900      15.551841      15.551905      15.638368      15.724384      15.724304      15.638296      15.638239      15.724239      15.724188      15.638194      15.551754      15.464828      15.464858      15.551791      15.464806      15.551725      15.551705      15.464791      15.464783      15.464778      15.551683      15.551692      15.638115      15.638102      15.724073      15.724092      15.724115      15.638134      15.638160      15.724147      15.809731      15.894961      15.894917      15.809694      15.809665      15.809642      15.894855      15.894882      15.979794      15.979760      16.064407      16.064445      16.064491      15.979834      15.979884      16.064548      15.980019      16.064695      16.064615      15.979945      15.895016      15.809779      15.809838      15.895082      15.895162      15.809911      15.809999      15.895259      15.980211      15.980106      16.064791      16.064903      16.149378      16.233658      16.233530      16.149258      16.149155      16.149067      16.233326      16.233419      16.317492      16.317390      16.401207      16.401314      16.401440      16.317608      16.317745      16.401583      16.485029      16.484877      16.567623      16.567783      16.649281      16.728502      16.728329      16.649115      16.648968      16.728176      16.728043      16.648840      16.567364      16.567484      16.484745      16.484631      16.484531      16.484447      16.567167      16.567259      16.648729      16.727924      16.727823      16.648632      16.648550      16.727736      16.727659      16.648479      16.567024      16.567089      16.484375      16.484314      16.400911      16.400969      16.317169      16.317118      16.233074      16.148838      16.148880      16.233122      16.233179      16.148932      16.148993      16.233246      16.317305      16.401114      16.401035      16.317230      16.317011      16.400795      16.400770      16.316988      16.232960      16.148735      16.148752      16.232979      16.233006      16.148775      16.148804      16.233036      16.317076      16.317039      16.400826      16.400866      16.484262      16.484219      16.566921      16.566967      16.648418      16.727596      16.727541      16.648369      16.648327      16.727497      16.727461      16.648294      16.566853      16.566883      16.484184      16.484158      16.484135      16.484119      16.566813      16.566830      16.648268      16.727434      16.727413      16.648249      16.648237      16.727400      16.727392      16.648232      16.566795      16.566801      16.484110      16.484104      16.400723      16.316948      16.316952      16.400726      16.400749      16.400736      16.316959      16.316971      16.232944      16.232933      16.148712      16.148722      16.148706      16.232925      16.232924      16.148703      16.064293      16.064295      15.979668      15.979666      15.894779      15.80