<VTKFile type="UnstructuredGrid" version="1.0" byte_order="LittleEndian" header_type="UInt64">
  <UnstructuredGrid>
    <Piece NumberOfPoints="40528" NumberOfCells="18337">
      <CellData Scalars="Scalars_">
        <DataArray type="Float32" Name="Scalars_" format="ascii">
     16.114464      16.114473      16.082108      16.082098      16.026064      15.956106      15.956116      16.026073      16.026094      15.956134      15.956162      16.026123      16.082157      16.082127      16.114494      16.114525      16.114567      16.114622      16.082253      16.082199      16.026163      15.956201      15.956249      16.026215      16.026278      15.956309      15.956382      16.026352      16.082396      16.082317      16.114687      16.114767      16.114861      16.114969      16.082594      16.082487      16.026442      15.956468      15.956568      16.026545      16.026665      15.956682      15.956815      16.026802      16.082857      16.082716      16.115095      16.115238      16.115402      16.115587      16.083200      16.083019      16.026958      15.956965      15.957137      16.027134      16.027334      15.957331      15.957548      16.027559      16.083635      16.083405      16.115795      16.116028      16.116289      16.116579      16.084179      16.083893      16.027809      15.957792      15.958066      16.028090      16.028402      15.958370      15.958709      16.028748      16.084848      16.084496      16.116901      16.117258      16.117651      16.118086      16.085669      16.085239      16.029131      15.959085      15.959500      16.029554      16.030022      15.959958      15.960464      16.030535      16.086662      16.086143      16.118563      16.119087      16.119661      16.120287      16.087852      16.087231      16.031096      15.961018      15.961625      16.031712      16.032383      15.962290      15.963015      16.033115      16.089272      16.088531      16.120970      16.121714      16.122519      16.123394      16.090944      16.090073      16.033913      15.963804      15.964664      16.034777      16.035713      15.965594      15.966603      16.036728      16.092903      16.091887      16.124338      16.125360      16.046318      15.976199      15.977988      16.048100      16.104273      16.136734      16.134960      16.102497      16.100832      16.133297      16.131737      16.099272      16.043087      16.044649      15.974524      15.972959      15.971498      16.041628      16.040266      15.970136      15.968869      15.967693      16.037821      16.039000      16.095182      16.094000      16.126459      16.127644      16.128914      16.096451      16.097815      16.130278      15.981927      15.979896      16.049995      16.052013      16.108171      16.106163      16.138620      16.140625      16.145002      16.142750      16.110302      16.112562      16.056429      16.054157      15.984086      15.986379      15.991384      15.988810      16.058838      16.061384      16.117479      16.114952      16.147385      16.149902      16.155355      16.152557      16.120148      16.122961      16.066914      16.064074      15.994104      15.996979      16.091322      16.021782      16.026054      16.095512      16.151201      16.183401      16.179306      16.147072      16.143124      16.175388      16.171644      16.139349      16.083490      16.087317      16.017700      16.013807      16.010098      16.079842      16.076365      16.006565      16.003204      16.000010      16.069904      16.073053      16.129038      16.125923      16.158302      16.161400      16.164654      16.132311      16.135748      16.168066      16.035204      16.030527      16.099895      16.104473      16.160019      16.155516      16.187679      16.192141      16.201643      16.196795      16.164719      16.169617      16.114241      16.109253      16.040091      16.045195      16.056082      16.050522      16.119442      16.124861      16.180035      16.174721      16.206694      16.211948      16.223101      16.217417      16.185566      16.191320      16.136387      16.130507      16.061878      16.067923      15.096713      15.007825      15.015882      15.104442      15.192718      15.280709      15.273604      15.185303      15.178299      15.266887      15.260538      15.171685      15.082524      15.089414      15.000213      14.993030      14.903187      14.910695      14.820859      14.812977      14.722358      14.631262      14.640051      14.730667      14.739518      14.649446      14.659472      14.748929      14.838114      14.829233      14.918657      14.927087      14.935995      14.945387      14.857439      14.847513      14.758915      14.670139      14.681457      14.769487      14.780657      14.693412      14.705969      14.792432      14.878888      14.867897      14.955264      14.965619      15.052881      15.140090      15.130417      15.042885      15.033397      15.024402      15.112620      15.121270      15.208871      15.200565      15.288224      15.296173      15.304585      15.217664      15.226979      15.313494      15.399720      15.485782      15.477729      15.391244      15.383225      15.375636      15.462851      15.470093      15.556793      15.549874      15.636635      15.643262      15.650223      15.564075      15.571737      15.657535      15.742974      15.735975      15.820951      15.827669      15.910949      15.991675      15.985435      15.904482      15.898297      15.979456      15.973732      15.892384      15.808408      15.722939      15.729301      15.814535      15.796976      15.711090      15.716871      15.802559      15.886729      15.968251      15.963008      15.881326      15.876164      15.957993      15.953198      15.871236      15.786572      15.791650      15.705582      15.700336      15.613185      15.525487      15.531120      15.618614      15.630327      15.624325      15.537053      15.543300      15.455982      15.449469      15.361650      15.368452      15.355209      15.443292      15.437436      15.349114      15.343349      15.431888      15.426634      15.337896      15.332744      15.327880      15.416960      15.421661      15.510265      15.505713      15.594056      15.598469      15.603122      15.515071      15.520141      15.608024      15.695344      15.690596      15.777122      15.781732      15.866533      15.948619      15.944247      15.862050      15.857778      15.940078      15.936104      15.853711      15.768565      15.681796      15.686082      15.772736      15.760840      15.673874      15.677729      15.764602      15.849842      15.932320      15.928720      15.846166      15.842676      15.925299      15.922051      15.839368      15.753897      15.757275      15.670222      15.666769      15.578636      15.489864      15.493491      15.582172      15.589875      15.585917      15.497335      15.501407      15.412517      15.408323      15.318965      15.323290      15.314893      15.404369      15.400644      15.311063      15.221142      15.130869      15.134930      15.225084      15.233748      15.229282      15.139262      15.143877      15.053641      15.048868      14.958059      14.963000      14.953436      15.044394      15.040208      14.949117      14.857548      14.862008      14.770061      14.765452      14.672781      14.579481      14.584407      14.677545      14.682674      14.589723      14.595453      14.688191      14.780324      14.775012      14.866790      14.871910      14.877386      14.883234      14.792109      14.786016      14.694117      14.601624      14.608263      14.700473      14.707283      14.615396      14.623053      14.714570      14.805570      14.798619      14.889473      14.896117      14.986261      14.979890      15.069907      15.076028      15.165444      15.254540      15.248877      15.159558      15.154011      15.243533      15.238495      15.148789      15.058729      14.968275      14.973900      15.064146      15.020377      14.928778      14.931570      15.023114      15.114206      15.204891      15.202261      15.111525      15.109034      15.199814      15.197542      15.106725      15.015494      15.017841      14.926194      14.923808      14.831617      14.834044      14.741345      14.738878      14.645545      14.551575      14.554123      14.648053      14.650784      14.556905      14.559937      14.653756      14.746939      14.744027      14.836677      14.839527      14.842611      14.845941      14.753505      14.750093      14.656982      14.563236      14.566821      14.660480      14.664268      14.570710      14.574923      14.668362      14.761168      14.757192      14.849529      14.853394      14.945086      15.036294      15.032640      14.941330      14.937834      14.934585      15.026062      15.029234      15.120189      15.117091      15.207715      15.210742      15.213982      15.123509      15.127066      15.217445      15.307465      15.397140      15.393847      15.304090      15.300926      15.297966      15.387858      15.390756      15.480206      15.477369      15.566410      15.569193      15.572154      15.483230      15.486446      15.575299      15.663506      15.660426      15.747682      15.750701      15.836233      15.918972      15.916056      15.833268      15.830466      15.913297      15.910690      15.827823      15.742146      15.654791      15.657523      15.744832      15.737241      15.649812      15.652223      15.739617      15.825331      15.908232      15.905914      15.822986      15.820782      15.903734      15.901687      15.818714      15.732920      15.735010      15.647552      15.645436      15.556913      15.467719      15.469892      15.559056      15.563798      15.561349      15.472219      15.474709      15.385147      15.382613      15.292620      15.295200      15.290215      15.380249      15.378045      15.287978      15.285901      15.375996      15.374093      15.283976      15.282193      15.280547      15.370695      15.372328      15.462066      15.460445      15.549711      15.551319      15.553052      15.463814      15.465696      15.554914      15.643459      15.641615      15.729136      15.730964      15.816776      15.899765      15.897965      15.814963      15.813271      15.896283      15.894711      15.811691      15.725843      15.638299      15.639896      15.727431      15.722998      15.635442      15.636816      15.724368      15.810222      15.893247      15.891883      15.808856      15.807589      15.890616      15.889442      15.806416      15.720556      15.721729      15.634171      15.632998      15.544394      15.455110      15.456285      15.545568      15.548221      15.546841      15.457561      15.458946      15.369186      15.367795      15.277631      15.279029      15.276347      15.366515      15.365340      15.275171      15.184628      15.093701      15.094880      15.185806      15.188498      15.187094      15.096170      15.097582      15.006249      15.004832      14.913035      14.914460      14.911738      15.003538      15.002358      14.910559      14.818256      14.819436      14.726585      14.725407      14.631966      14.537894      14.539070      14.633143      14.634448      14.540376      14.541821      14.635889      14.729324      14.727888      14.820736      14.822166      14.823736      14.825456      14.732637      14.730904      14.637479      14.543419      14.545180      14.639226      14.641145      14.547117      14.549244      14.643247      14.736613      14.734537      14.827335      14.829386      14.921608      14.919583      15.011329      15.013327      15.104589      15.195436      15.193487      15.102615      15.100796      15.191687      15.190026      15.099120      15.007799      14.916019      14.917725      15.009489      13.041475      12.933749      12.936172      13.043888      13.150521      13.256142      13.253785      13.148135      13.146023      13.251694      13.249843      13.144159      13.037475      13.039348      12.931618      12.929748      12.928110      13.035832      13.034396      12.926682      12.925440      12.924363      13.032058      13.033145      13.139827      13.138734      13.244419      13.245517      13.246775      13.141083      13.142520      13.248210      13.352934      13.456721      13.455287      13.351501      13.350241      13.349139      13.452918      13.454025      13.556890      13.555776      13.657731      13.658854      13.660127      13.558157      13.559593      13.661567      13.663191      13.665015      13.563042      13.561215      13.458344      13.354561      13.356400      13.460176      13.462234      13.358473      13.360803      13.464543      13.567387      13.669343      13.667059      13.565092      13.868361      13.768146      13.770420      13.870624      13.969970      14.068475      14.066241      13.967720      13.965695      14.064228      14.062417      13.963880      13.864508      13.866328      13.766107      13.764283      13.762658      13.862881      13.861432      13.761213      13.759933      13.758802      13.859007      13.860146      13.959509      13.958363      14.056889      14.058043      14.059339      13.960801      13.962253      14.060793      14.158521      14.255462      14.254008      14.157067      14.155766      14.154607      14.251539      14.252705      14.348883      14.347713      14.443154      14.444327      14.445633      14.350187      14.351640      14.447083      14.448688      14.450461      14.355036      14.353251      14.257079      14.160143      14.161946      14.258874      14.260861      14.163947      14.166162      14.263056      14.359181      14.454567      14.452416      14.357008      14.285782      14.189268      14.193925      14.290337      14.385955      14.480803      14.476471      14.381508      14.377419      14.472481      14.468811      14.373667      14.277771      14.181095      14.185001      14.281602      14.271061      14.174270      14.177526      14.274264      14.370227      14.465440      14.462348      14.367077      14.364199      14.459517      14.456929      14.361573      14.265475      14.168609      14.171305      14.268138      13.775761      13.772951      13.873138      13.875925      13.975223      13.972464      14.070946      14.073674      14.079988      14.076681      13.978269      13.981624      13.882406      13.879006      13.778872      13.782310      13.790275      13.786102      13.886152      13.890269      13.989365      13.985314      14.083618      14.087597      14.096704      14.091949      13.993803      13.998660      13.899744      13.894790      13.794860      13.799890      13.489725      13.386452      13.391781      13.494917      13.597370      13.699073      13.693998      13.592257      13.587584      13.689368      13.685154      13.583328      13.480664      13.377180      13.381594      13.484982      13.473200      13.369576      13.373184      13.476746      13.579463      13.681325      13.677855      13.575961      13.572798      13.674718      13.671889      13.569947      13.467124      13.363412      13.366327      13.470002      12.942029      12.938919      13.046616      13.049692      13.156234      13.153211      13.258788      13.261754      13.268759      13.265067      13.159623      13.163414      13.057048      13.053157      12.945542      12.949507      12.959005      12.953974      13.061412      13.066298      13.172354      13.167645      13.272861      13.277408      13.287964      13.282432      13.177583      13.183372      13.077845      13.071755      12.964667      12.971038      13.142101      13.043382      13.058324      13.154361      13.252849      13.353616      13.343107      13.242003      13.231667      13.333331      13.324224      13.221936      13.119632      13.130482      13.029512      13.016878      13.005504      13.109619      13.100462      12.995331      12.986268      12.978206      13.084620      13.092143      13.196793      13.189764      13.294038      13.300679      13.307912      13.204489      13.212870      13.315755      13.418200      13.520573      13.513396      13.410806      13.403942      13.397604      13.500581      13.506736      13.609021      13.602951      13.704625      13.710690      13.717306      13.615602      13.622706      13.724519      13.732384      13.740972      13.638508      13.630343      13.528272      13.426117      13.434527      13.536496      13.545254      13.443375      13.452550      13.554575      13.656230      13.760744      13.750378      13.647165      13.950162      13.851558      13.862240      13.960280      14.056689      14.152834      14.143811      14.047263      14.038509      14.135397      14.127585      14.030412      13.932430      13.940902      13.841930      13.833208      13.825274      13.924681      13.917590      13.818040      13.811435      13.805401      13.905169      13.911102      14.009760      14.003968      14.101892      14.107542      14.113687      14.016073      14.022944      14.120358      14.217029      14.312883      14.306535      14.210517      14.204518      14.198997      14.295294      14.300683      14.396031      14.390787      14.485500      14.490588      14.496093      14.401717      14.407877      14.502042      14.508466      14.515395      14.421754      14.414543      14.319765      14.224087      14.231729      14.327220      14.335293      14.239992      14.248920      14.344035      14.437977      14.530912      14.522865      14.429550      14.431459      14.341060      14.364843      14.448935      14.534790      14.620670      14.606672      14.519406      14.504985      14.593520      14.581193      14.491557      14.400594      14.306499      14.322259      14.415315      14.374981      14.280318      14.292712      14.387199      14.479105      14.569666      14.558912      14.467585      14.456934      14.548895      14.539575      14.447085      14.353509      14.258565      14.268995      14.363792      13.887595      13.874169      13.971321      13.983332      14.077483      14.066777      14.162454      14.172626      14.194167      14.183254      14.088707      14.100276      14.010264      13.996328      13.902818      13.920195      13.962898      13.940114      14.024989      14.040172      14.123219      14.111914      14.205063      14.215426      14.230304      14.224368      14.133678      14.142719      14.068643      14.055197      13.991561      14.031313      13.651884      13.595505      13.606747      13.790325      13.859804      13.778064      13.771646      13.853055      13.842702      13.622214      13.588055      13.642242      13.587638      13.478940      13.484491      13.602426      13.688388      13.819098      13.800623      13.682767      13.674622      13.785378      13.772290      13.665513      13.564547      13.461851      13.470896      13.575394      13.089541      13.073948      13.167065      13.179975      13.275293      13.264036      13.365008      13.377631      13.410326      13.392224      13.286148      13.295721      13.205784      13.192885      13.103992      13.115864      13.123260      13.219139      13.234448      13.302286      13.435066      13.479836      13.549822      13.510678      13.379440      13.245070      13.249387      13.207701      13.952208      14.050604      14.050402      13.952016      13.852802      13.752738      13.752908      13.852983      13.853202      13.753116      13.753367      13.853465      13.952713      13.952438      14.050846      14.051134      14.148748      14.148449      14.245270      14.245582      14.341659      14.437008      14.436671      14.341334      14.341057      14.436382      14.436133      14.340819      14.244779      14.245004      14.148195      14.147981      14.147802      14.147655      14.244431      14.244589      14.340619      14.435922      14.435742      14.340450      14.340309      14.435592      14.435466      14.340193      14.244192      14.244299      14.147533      14.147436      14.049896      13.951550      13.951630      14.049985      14.050234      14.050096      13.951732      13.951859      13.852655      13.852538      13.752493      13.752602      13.752409      13.852446      13.852374      13.752347      13.651446      13.549653      13.549702      13.651502      13.651676      13.651577      13.549769      13.549860      13.447133      13.447050      13.343400      13.343476      13.343347      13.446990      13.446948      13.343311      13.238723      13.238752      13.133187      13.133163      13.026612      12.919048      12.919064      13.026632      13.026669      12.919095      12.919147      13.026726      13.133292      13.238869      13.238800      13.133229      13.133498      13.239089      13.238964      13.133381      13.026807      12.919223      12.919327      13.026918      13.027063      12.919465      12.919643      13.027249      13.133844      13.133651      13.239250      13.239451      13.344090      13.447782      13.447562      13.343880      13.343711      13.343578      13.447244      13.447385      13.550129      13.549978      13.651804      13.651963      13.652161      13.550316      13.550546      13.652401      13.652691      13.550824      13.551158      13.653036      13.653925      13.653445      13.551556      13.552023      13.449216      13.448759      13.345037      13.345484      13.344662      13.448373      13.448050      13.344349      13.239700      13.240004      13.134379      13.134085      13.027481      12.919868      12.920144      13.027767      13.028114      12.920483      12.920890      13.028532      13.135162      13.240806      13.240370      13.134736      13.136269      13.241931      13.241323      13.135670      13.029030      12.921378      12.921956      13.029618      13.030311      12.922637      12.923434      13.031118      13.137787      13.136970      13.242640      13.243465      13.348179      13.451950      13.451109      13.347346      13.346627      13.346010      13.449753      13.450380      13.553210      13.552571      13.654485      13.655135      13.655885      13.553948      13.554800      13.656746      13.757808      13.756935      13.857119      13.858003      13.957348      14.055865      14.054961      13.956454      13.955669      14.054165      14.053467      13.954983      13.855672      13.755512      13.756174      13.856346      13.754940      13.855086      13.854582      13.754447      13.754026      13.753669      13.853778      13.854148      13.953422      13.953039      14.051472      14.051867      14.052326      13.953868      13.954386      14.052856      14.150522      14.247405      14.246849      14.149979      14.149507      14.149099      14.245945      14.246366      14.342467      14.342034      14.437395      14.437840      14.438349      14.342963      14.343532      14.438929      14.344910      14.440328      14.439586      14.344177      14.248039      14.151144      14.151855      14.248761      14.249578      14.152661      14.153575      14.250501      14.346668      14.345737      14.441164      14.442103      14.536839      14.535892      14.629953      14.630905      14.724342      14.817189      14.816226      14.723384      14.722524      14.815358      14.814580      14.721753      14.628338      14.534295      14.535047      14.629100      14.533627      14.627661      14.627059      14.533036      14.532516      14.532059      14.626059      14.626527      14.719911      14.719431      14.812217      14.812707      14.813261      14.720453      14.721066      14.813883      14.906156      14.997928      14.997287      14.905523      14.904960      14.904459      14.996202      14.996714      15.088013      15.087491      15.178368      15.178899      15.179490      15.088595      15.089245      15.180148      15.090768      15.181684      15.180878      15.089967      14.998642      14.906861      14.907647      14.999435      15.000315      14.908521      14.909489      15.001287      15.092628      15.091652      15.182574      15.183554      15.274095      15.364263      15.363277      15.273112      15.272218      15.271405      15.361559      15.362378      15.452140      15.451315      15.540585      15.541414      15.542322      15.453043      15.454032      15.543314      15.631917      15.630922      15.718476      15.719474      15.805330      15.888355      15.887351      15.804330      15.803409      15.886425      15.885572      15.802562      15.716718      15.717559      15.630010      15.629174      15.628411      15.627714      15.715244      15.715948      15.801785      15.884789      15.884071      15.801075      15.800426      15.883414      15.882814      15.799834      15.714020      15.714603      15.627081      15.626506      15.537946      15.538513      15.449265      15.448708      15.358983      15.268861      15.269402      15.359532      15.360142      15.270002      15.270668      15.360816      15.450564      15.539827      15.539139      15.449883      15.447346      15.536558      15.536186      15.446983      15.357296      15.267212      15.267556      15.357650      15.358046      15.267942      15.268376      15.358489      15.448204      15.447752      15.536973      15.537435      15.625985      15.625515      15.713012      15.713490      15.799296      15.882269      15.881772      15.798808      15.798368      15.881322      15.880916      15.797969      15.712189      15.712579      15.625091      15.624710      15.624369      15.624063      15.711525      15.711839      15.797609      15.880548      15.880218      15.797288      15.796999      15.879921      15.879655      15.796741      15.710995      15.711245      15.623792      15.623549      15.535060      15.445892      15.446117      15.535294      15.535853      15.535557      15.446372      15.446660      15.356982      15.356703      15.266638      15.266908      15.266401      15.356457      15.356240      15.266192      15.175776      15.175974      15.085167      15.084977      14.993767      14.902104      14.902276      14.993948      14.994157      14.902476      14.902707      14.994398      15.085636      15.176462      15.176202      15.085385      15.087026      15.177892      15.177468      15.086612      15.086246      15.177092      15.176757      15.085921      14.902972      14.994673      14.994987      14.903275      14.903621      14.995343      14.995747      14.904014      14.719008      14.811783      14.811400      14.718637      14.718313      14.811066      14.810773      14.718031      14.530750      14.624703      14.624974      14.531010      14.531311      14.625287      14.625647      14.531659      14.624270      14.530337      14.530527      14.624471      14.717787      14.810518      14.810298      14.717577      14.717397      14.810107      14.809945      14.717242      14.623955      14.624100      14.530177      14.530042      14.529929      14.529836      14.623732      14.623834      14.717113      14.809806      14.809688      14.717003      14.716910      14.809588      14.809505      14.716834      14.623578      14.529696      14.529759      14.623648      14.529647      14.623522      14.623476      14.529608      14.529576      14.529552      14.623411      14.623440      14.716679      14.716645      14.809294      14.809332      14.809379      14.716720      14.716771      14.809436      14.901558      14.993183      14.993114      14.901495      14.901443      14.901401      14.993010      14.993057      15.084218      15.084166      15.174911      15.174968      15.175035      15.084281      15.084355      15.175116      15.084548      15.175323      15.175211      15.084444      14.993265      14.901633      14.901724      14.993362      14.993477      14.901831      14.901957      14.993610      15.084812      15.084670      15.175451      15.175602      15.266011      15.356050      15.355885      15.265853      15.265716      15.265597      15.355615      15.355740      15.445368      15.445235      15.534373      15.534513      15.534672      15.445520      15.445694      15.534853      15.623336      15.623146      15.710576      15.710773      15.796512      15.879417      15.879207      15.796308      15.796127      15.879020      15.878855      15.795968      15.710251      15.710402      15.622980      15.622834      15.622706      15.622596      15.710001      15.710117      15.795829      15.878710      15.878582      15.795708      15.795602      15.878471      15.878376      15.795510      15.709813      15.709900      15.622500      15.622418      15.533980      15.534058      15.444938      15.444866      15.355268      15.265274      15.265336      15.355334      15.355413      15.265409      15.265496      15.355506      15.445121      15.534252      15.534147      15.445023      15.444715      15.533817      15.533781      15.444681      15.355098      15.265118      15.265145      15.355127      15.355165      15.265180      15.265223      15.355212      15.444806      15.444756      15.533861      15.533916      15.622350      15.622292      15.709678      15.709740      15.795432      15.878294      15.878225      15.795366      15.795312      15.878168      15.878121      15.795268      15.709585      15.709626      15.622243      15.622205      15.622174      15.622152      15.709529      15.709553      15.795234      15.878084      15.878057      15.795208      15.795192      15.878040      15.878031      15.795183      15.709505      15.709514      15.622138      15.622131      15.533713      15.444619      15.444625      15.533720      15.533753      15.533733      15.444637      15.444655      15.355074      15.355058      15.265081      15.265097      15.265072      15.355046      15.355041      15.265067      15.174722      15.174726      15.084001      15.083996      14.992858      14.90