<VTKFile type="UnstructuredGrid" version="1.0" byte_order="LittleEndian" header_type="UInt64">
  <UnstructuredGrid>
    <Piece NumberOfPoints="40528" NumberOfCells="18337">
      <CellData Scalars="Scalars_">
        <DataArray type="Float32" Name="Scalars_" format="ascii">
     19.022514      19.022520      18.992664      18.992657      18.942068      18.880623      18.880629      18.942076      18.942087      18.880640      18.880657      18.942106      18.992697      18.992678      19.022533      19.022554      19.022583      19.022619      18.992760      18.992725      18.942133      18.880682      18.880714      18.942165      18.942207      18.880753      18.880800      18.942257      18.992855      18.992804      19.022665      19.022718      19.022783      19.022858      18.992990      18.992918      18.942316      18.880856      18.880920      18.942387      18.942467      18.880999      18.881086      18.942560      18.993172      18.993074      19.022943      19.023045      19.023159      19.023289      18.993412      18.993284      18.942667      18.881187      18.881306      18.942789      18.942928      18.881437      18.881588      18.943085      18.993717      18.993555      19.023436      19.023602      19.023787      19.023996      18.994104      18.993900      18.943262      18.881758      18.881950      18.943460      18.943684      18.882164      18.882404      18.943932      18.994587      18.994333      19.024229      19.024487      19.024775      19.025091      18.995184      18.994871      18.944206      18.882673      18.882971      18.944513      18.944853      18.883301      18.883667      18.945227      18.995913      18.995531      19.025442      19.025829      19.026253      19.026718      18.996792      18.996332      18.945639      18.884071      18.884516      18.946093      18.946589      18.885004      18.885540      18.947132      18.997847      18.997295      19.027227      19.027782      19.028385      19.029043      18.999098      18.998446      18.947725      18.886124      18.886763      18.948370      18.949072      18.887457      18.888210      18.949833      19.000572      18.999805      19.029755      19.030525      18.957102      18.895460      18.896822      18.958462      19.009220      19.039186      19.037830      19.007862      19.006592      19.036558      19.035368      19.005404      18.954643      18.955832      18.894188      18.893002      18.891895      18.953535      18.952503      18.890865      18.889912      18.889029      18.950655      18.951544      19.002295      19.001402      19.031357      19.032253      19.033220      19.003258      19.004293      19.034256      18.899826      18.898275      18.959909      18.961454      19.012205      19.010666      19.040630      19.042168      19.045528      19.043798      19.013840      19.015574      18.964838      18.963095      18.901478      18.903231      18.907066      18.905092      18.966686      18.968641      19.019354      19.017410      19.047359      19.049295      19.053493      19.051338      19.021406      19.023571      18.972893      18.970709      18.909155      18.911362      18.991690      18.930435      18.933723      18.994919      19.045328      19.075096      19.071943      19.042147      19.039104      19.068926      19.066040      19.036196      18.985659      18.988605      18.927298      18.924301      18.921448      18.982847      18.980169      18.918730      18.916145      18.913691      18.975195      18.977619      19.028252      19.025852      19.055761      19.058147      19.060654      19.030773      19.033421      19.063284      18.940760      18.937162      18.998293      19.001818      19.052118      19.048651      19.078388      19.081823      19.089128      19.085402      19.055733      19.059502      19.009331      19.005495      18.944515      18.948435      18.956791      18.952526      19.013329      19.017492      19.067507      19.063423      19.093008      19.097044      19.105597      19.101238      19.071753      19.076166      19.026335      19.021826      18.961235      18.965866      18.179457      18.109863      18.115980      18.185299      18.254602      18.323944      18.318613      18.249022      18.243759      18.313576      18.308817      18.238796      18.168777      18.173956      18.104109      18.098700      18.028521      18.034180      17.964138      17.958202      17.887707      17.816992      17.823570      17.893950      17.900639      17.830650      17.838255      17.907799      17.977245      17.970480      18.040209      18.046627      18.053444      18.060675      17.992111      17.984451      17.915447      17.846407      17.855122      17.923603      17.932287      17.864401      17.874229      17.941515      18.008860      18.000244      18.068331      18.076412      18.144402      18.212460      18.205053      18.136665      18.129362      18.122473      18.191498      18.198074      18.266787      18.260517      18.329586      18.335556      18.341875      18.273436      18.280489      18.348570      18.416824      18.485367      18.479336      18.410477      18.404470      18.398785      18.468185      18.473616      18.543037      18.537838      18.607746      18.612741      18.617987      18.548506      18.554256      18.623491      18.692995      18.687708      18.757488      18.762585      18.831875      18.900118      18.895350      18.826950      18.822237      18.890778      18.886395      18.817724      18.747961      18.677843      18.682659      18.752617      18.739262      18.668865      18.673248      18.743511      18.813408      18.882198      18.878180      18.809280      18.805334      18.874334      18.870657      18.801565      18.731337      18.735207      18.664686      18.660706      18.590036      18.519487      18.523729      18.594139      18.602985      18.598454      18.528194      18.532894      18.463034      18.458145      18.388300      18.393398      18.383472      18.453508      18.449112      18.378902      18.374580      18.444944      18.440998      18.370495      18.366636      18.362995      18.433733      18.437263      18.508017      18.504587      18.575567      18.578905      18.582426      18.511639      18.515459      18.586134      18.656916      18.653311      18.724134      18.727648      18.797968      18.867142      18.863787      18.794538      18.791267      18.860586      18.857534      18.788155      18.717607      18.646627      18.649881      18.720789      18.711720      18.640610      18.643538      18.714586      18.785194      18.854630      18.851868      18.782381      18.779713      18.849241      18.846752      18.777184      18.706429      18.709002      18.637838      18.635220      18.563911      18.492657      18.495384      18.566582      18.572405      18.569412      18.498278      18.501343      18.430399      18.427254      18.356329      18.359562      18.353287      18.424290      18.421501      18.350431      18.279408      18.208378      18.211384      18.282337      18.288788      18.285461      18.214598      18.218027      18.147217      18.143679      18.072649      18.076300      18.069244      18.140371      18.137283      18.066071      17.994686      17.997948      17.926439      17.923086      17.851231      17.779079      17.782621      17.854677      17.858402      17.786461      17.790617      17.862425      17.933949      17.930056      18.001457      18.005226      18.009272      18.013607      17.942640      17.938137      17.866766      17.795113      17.799973      17.871441      17.876476      17.805222      17.810884      17.881889      17.952652      17.947472      18.018251      18.023216      18.093620      18.088854      18.159327      18.163906      18.234121      18.304325      18.300087      18.229719      18.225576      18.296091      18.292330      18.221684      18.150995      18.080208      18.084389      18.155027      18.122776      18.051270      18.053286      18.124763      18.196115      18.267391      18.265459      18.194155      18.192341      18.263666      18.262005      18.190664      18.119246      18.120939      18.049412      18.047701      17.975979      17.977705      17.905781      17.904037      17.831841      17.759356      17.761126      17.833597      17.835520      17.763065      17.765192      17.837620      17.909754      17.907682      17.979586      17.981630      17.983849      17.986252      17.914455      17.912008      17.839909      17.767515      17.770050      17.842400      17.845106      17.772812      17.775816      17.848045      17.919981      17.917109      17.988852      17.991659      18.063118      18.134403      18.131721      18.060373      18.057827      18.055468      18.126911      18.129227      18.200502      18.198227      18.269470      18.271704      18.274099      18.202946      18.205568      18.276665      18.347750      18.418879      18.416416      18.345240      18.342890      18.340694      18.411951      18.414110      18.485407      18.483280      18.554695      18.556789      18.559019      18.487673      18.490088      18.561392      18.632746      18.630413      18.701698      18.703995      18.774788      18.844391      18.842157      18.772524      18.770386      18.840046      18.838053      18.768372      18.697493      18.626150      18.628216      18.699532      18.693775      18.622393      18.624210      18.695576      18.766474      18.836174      18.834406      18.764690      18.763018      18.832745      18.831186      18.761448      18.690510      18.692087      18.620691      18.619101      18.547575      18.476084      18.477697      18.549177      18.552732      18.550894      18.479433      18.481293      18.409935      18.408052      18.336740      18.338648      18.334969      18.406300      18.404669      18.333324      18.331800      18.403158      18.401756      18.330391      18.329092      18.327894      18.399265      18.400461      18.471897      18.470703      18.542217      18.543409      18.544697      18.473186      18.474581      18.546083      18.617619      18.616238      18.687660      18.689035      18.759981      18.829727      18.828362      18.758612      18.757336      18.827087      18.825899      18.756147      18.685192      18.613764      18.614954      18.686380      18.683069      18.611643      18.612661      18.684090      18.755045      18.824795      18.823769      18.754021      18.753075      18.822819      18.821939      18.752201      18.681257      18.682125      18.610704      18.609840      18.538307      18.466805      18.467657      18.539165      18.541117      18.540100      18.468590      18.469603      18.398165      18.397154      18.325787      18.326794      18.324863      18.396227      18.395380      18.324020      18.252691      18.181339      18.182169      18.253527      18.255449      18.254444      18.183081      18.184084      18.112642      18.111643      18.040081      18.041075      18.039179      18.110737      18.109913      18.038364      17.966644      17.967451      17.895510      17.894712      17.822531      17.750069      17.750845      17.823318      17.824196      17.751713      17.752684      17.825172      17.897379      17.896397      17.968346      17.969336      17.970427      17.971630      17.899670      17.898468      17.826258      17.753761      17.754957      17.827456      17.828781      17.756283      17.757744      17.830238      17.902445      17.900993      17.972950      17.974398      18.046129      18.044689      18.116255      18.117687      18.189116      18.260469      18.259052      18.187691      18.186382      18.257748      18.256550      18.185183      18.113739      18.042170      18.043373      18.114941      16.622681      16.543573      16.544987      16.624102      16.702717      16.780855      16.779434      16.701294      16.700058      16.778193      16.777113      16.698986      16.620388      16.621450      16.542353      16.541302      16.540403      16.619474      16.618696      16.539639      16.538990      16.538446      16.617476      16.618032      16.696594      16.696022      16.774097      16.774685      16.775373      16.697269      16.698063      16.776178      16.853832      16.931038      16.930206      16.853016      16.852312      16.851713      16.928873      16.929489      17.006220      17.005589      17.081863      17.082512      17.083260      17.006952      17.007799      17.084122      17.085108      17.086231      17.009882      17.008770      16.931995      16.854778      16.855867      16.933096      16.934351      16.857115      16.858540      16.935780      17.012585      17.088953      17.087507      17.011148      17.238934      17.163435      17.164886      17.240393      17.315474      17.390141      17.388676      17.314011      17.312708      17.387367      17.386200      17.311550      17.236490      17.237638      17.162149      17.161013      17.160011      17.235477      17.234587      17.159136      17.158371      17.157707      17.233126      17.233807      17.308825      17.308128      17.382725      17.383436      17.384245      17.309620      17.310524      17.385162      17.459404      17.533260      17.532320      17.458475      17.457653      17.456926      17.530746      17.531485      17.604950      17.604198      17.677299      17.678062      17.678921      17.605797      17.606749      17.679882      17.680954      17.682146      17.609001      17.607813      17.534317      17.460451      17.461626      17.535500      17.536818      17.462940      17.464407      17.538284      17.611788      17.684935      17.683470      17.610321      17.553877      17.480148      17.483389      17.557064      17.630350      17.703259      17.700190      17.627218      17.624355      17.697376      17.694799      17.621738      17.548313      17.474508      17.477194      17.550966      17.543705      17.469852      17.472065      17.545898      17.619352      17.692444      17.690294      17.617180      17.615204      17.688334      17.686552      17.613411      17.539911      17.466038      17.467848      17.541714      17.168350      17.166519      17.242027      17.243855      17.318932      17.317108      17.391773      17.393591      17.397842      17.395609      17.320961      17.323214      17.248163      17.245893      17.170397      17.172678      17.178030      17.175215      17.250681      17.253468      17.328463      17.325706      17.400309      17.403030      17.409321      17.406027      17.331503      17.334850      17.259954      17.256552      17.181147      17.184591      16.952274      16.875214      16.878838      16.955818      17.032465      17.108747      17.105276      17.028969      17.025806      17.102137      17.099302      17.022953      16.946190      16.869020      16.871948      16.949072      16.941292      16.864069      16.866402      16.943604      17.020390      17.096750      17.094461      17.018089      17.016037      17.092411      17.090580      17.014208      16.937401      16.860159      16.861996      16.939230      16.548494      16.546618      16.625736      16.627609      16.706205      16.704346      16.782478      16.784325      16.788782      16.786417      16.708321      16.710722      16.632189      16.629749      16.550648      16.553112      16.559149      16.555931      16.634964      16.638115      16.716509      16.713440      16.791445      16.794437      16.801527      16.797787      16.719965      16.723845      16.645725      16.641685      16.562820      16.567011      16.691210      16.617830      16.628895      16.700356      16.773642      16.848675      16.840868      16.765560      16.757944      16.833677      16.827049      16.750864      16.674795      16.682661      16.607704      16.598618      16.590563      16.667641      16.661196      16.583469      16.577244      16.571791      16.650288      16.655426      16.733034      16.728189      16.805687      16.810295      16.815376      16.738413      16.744352      16.820955      16.897354      16.973803      16.968700      16.892090      16.887257      16.882845      16.959724      16.964012      17.040539      17.036314      17.112576      17.116789      17.121422      17.045156      17.050188      17.126513      17.132109      17.138269      17.061522      17.055641      16.979328      16.903048      16.909157      16.985291      16.991703      16.915644      16.922432      16.998608      17.074459      17.152651      17.145077      17.067812      17.295738      17.221182      17.228989      17.303150      17.376356      17.449526      17.442917      17.369442      17.363077      17.436800      17.431164      17.357241      17.282928      17.289021      17.214214      17.207958      17.202316      17.277405      17.272390      17.197212      17.192587      17.188393      17.263706      17.267839      17.342585      17.338535      17.412937      17.416901      17.421242      17.347029      17.351902      17.425985      17.499722      17.573063      17.568523      17.495079      17.490829      17.486940      17.560551      17.564363      17.637495      17.633768      17.706602      17.710239      17.714191      17.641556      17.645977      17.718483      17.723137      17.728186      17.656017      17.650787      17.578011      17.504786      17.510302      17.583399      17.589268      17.516304      17.522831      17.595661      17.667879      17.739580      17.733654      17.661699      17.661613      17.592236      17.610701      17.675228      17.741468      17.807983      17.797041      17.729460      17.718307      17.786850      17.777378      17.708015      17.637901      17.565777      17.577778      17.649153      17.618580      17.546076      17.555367      17.627756      17.698555      17.768595      17.760462      17.689873      17.681910      17.752943      17.745996      17.674597      17.602629      17.529924      17.537643      17.610241      17.247810      17.237799      17.311314      17.320278      17.391819      17.383823      17.456625      17.464186      17.480364      17.472141      17.400278      17.409075      17.340652      17.330067      17.259268      17.272444      17.305105      17.287636      17.351923      17.363625      17.426750      17.418001      17.488621      17.496511      17.507908      17.503349      17.434914      17.442036      17.385725      17.375269      17.327147      17.357779      17.074760      17.034985      17.044399      17.180664      17.228722      17.170656      17.165436      17.223303      17.214869      17.051182      17.028873      17.067085      17.023832      16.942257      16.946489      17.035465      17.098541      17.196655      17.182503      17.094271      17.088135      17.170961      17.161179      17.081331      17.006088      16.929371      16.936169      17.014349      16.652464      16.640619      16.709965      16.719870      16.790632      16.782068      16.857214      16.866758      16.891802      16.877884      16.798958      16.806355      16.740164      16.729931      16.663563      16.672768      16.678541      16.750963      16.763510      16.811453      16.910976      16.945490      17.000628      16.969791      16.872128      16.772972      16.775551      16.746420      17.304764      17.379202      17.379120      17.304693      17.229858      17.154608      17.154659      17.229919      17.230005      17.154732      17.154831      17.230114      17.304983      17.304859      17.379311      17.379444      17.453514      17.453365      17.527042      17.527203      17.600525      17.673500      17.673315      17.600351      17.600210      17.673161      17.673033      17.600092      17.526806      17.526911      17.453247      17.453154      17.453079      17.453026      17.526659      17.526722      17.599998      17.672928      17.672844      17.599926      17.599869      17.672779      17.672728      17.599827      17.526577      17.526611      17.452988      17.452963      17.378967      17.304577      17.304585      17.378984      17.379057      17.379013      17.304605      17.304640      17.229816      17.229792      17.154558      17.154575      17.154554      17.229778      17.229778      17.154562      17.078917      17.002831      17.002811      17.078903      17.078907      17.078899      17.002800      17.002802      16.926250      16.926256      16.849257      16.849243      16.849279      16.926273      16.926298      16.849310      16.771858      16.771822      16.693892      16.693932      16.615524      16.536629      16.536579      16.615480      16.615442      16.536537      16.536505      16.615412      16.693832      16.771774      16.771793      16.693857      16.693821      16.771774      16.771767      16.693819      16.615395      16.536480      16.536469      16.615389      16.615398      16.536474      16.536497      16.615431      16.693876      16.693838      16.771799      16.771845      16.849346      16.926388      16.926321      16.849291      16.849257      16.849243      16.926256      16.926279      17.002848      17.002815      17.078930      17.078972      17.079033      17.002899      17.002975      17.079121      17.079237      17.003080      17.003218      17.079386      17.079805      17.079575      17.003391      17.003609      16.926971      16.926767      16.849691      16.849882      16.849543      16.926605      16.926479      16.849428      16.771917      16.772020      16.694033      16.693939      16.615486      16.536545      16.536621      16.615570      16.615686      16.536730      16.536877      16.615845      16.694328      16.772339      16.772160      16.694160      16.694811      16.772846      16.772564      16.694542      16.616047      16.537069      16.537313      16.616302      16.616621      16.537619      16.537992      16.617008      16.695541      16.695141      16.773190      16.773603      16.851202      16.928349      16.927904      16.850775      16.850416      16.850122      16.927223      16.927532      17.004200      17.003876      17.080088      17.080427      17.080832      17.004587      17.005047      17.081306      17.157133      17.156641      17.232027      17.232536      17.307524      17.382105      17.381563      17.306999      17.306547      17.381096      17.380693      17.306160      17.231222      17.155867      17.156221      17.231592      17.155569      17.230909      17.230648      17.155323      17.155121      17.154959      17.230255      17.230433      17.305326      17.305136      17.379612      17.379816      17.380060      17.305555      17.305832      17.380350      17.454475      17.528219      17.527899      17.454170      17.453911      17.453693      17.527395      17.527626      17.600975      17.600731      17.673719      17.673979      17.674280      17.601263      17.601599      17.674629      17.602434      17.675495      17.675032      17.601988      17.528593      17.454834      17.455252      17.529026      17.529526      17.455734      17.456291      17.530096      17.603533      17.602947      17.676022      17.676620      17.749378      17.748766      17.821203      17.821829      17.893999      17.965921      17.965273      17.893362      17.892794      17.964693      17.964178      17.892292      17.820158      17.747747      17.748224      17.820648      17.747332      17.819729      17.819351      17.746967      17.746653      17.746380      17.818737      17.819023      17.891115      17.890818      17.962652      17.962963      17.963318      17.891457      17.891848      17.963720      18.035385      18.106882      18.106455      18.034969      18.034603      18.034281      18.105742      18.106075      18.177427      18.177082      18.248352      18.248709      18.249111      18.177818      18.178257      18.249561      18.179296      18.250622      18.250063      18.178747      18.107363      18.035854      18.036381      18.107901      18.108501      18.036972      18.037630      18.109171      18.180588      18.179909      18.251244      18.251932      18.323254      18.394606      18.393902      18.322557      18.321928      18.321358      18.392683      18.393263      18.464664      18.464077      18.535547      18.536144      18.536800      18.465313      18.466024      18.537519      18.609047      18.608320      18.679724      18.680458      18.751396      18.821129      18.820381      18.750654      18.749975      18.819695      18.819065      18.749353      18.678438      18.679052      18.607656      18.607052      18.606501      18.606001      18.677370      18.677879      18.748785      18.818489      18.817963      18.748268      18.747797      18.817482      18.817047      18.747370      18.676491      18.676908      18.605549      18.605141      18.533674      18.534073      18.462631      18.462242      18.390890      18.319605      18.319973      18.391268      18.391689      18.320385      18.320847      18.392160      18.463543      18.535006      18.534515      18.463064      18.461309      18.532711      18.532459      18.461065      18.389751      18.318508      18.318733      18.389986      18.390253      18.318989      18.319279      18.390553      18.461895      18.461584      18.532997      18.533318      18.604774      18.604445      18.675776      18.676115      18.746984      18.816652      18.816294      18.746637      18.746325      18.815973      18.815683      18.746042      18.675200      18.675472      18.604151      18.603888      18.603653      18.603447      18.674742      18.674957      18.745792      18.815424      18.815191      18.745567      18.745369      18.814983      18.814800      18.745193      18.674383      18.674551      18.603264      18.603104      18.531708      18.460350      18.460495      18.531860      18.532234      18.532036      18.460661      18.460850      18.389545      18.389366      18.318142      18.318312      18.317993      18.389208      18.389072      18.317863      18.246689      18.246809      18.175610      18.175497      18.104239      18.032860      18.032955      18.104342      18.104464      18.033068      18.033199      18.104607      18.175892      18.247110      18.246948      18.175739      18.176777      18.248037      18.247757      18.176508      18.176273      18.247513      18.247297      18.176069      18.033358      18.104773      18.104967      18.033541      18.033752      18.105190      18.105448      18.033998      17.890560      17.962383      17.962149      17.890337      17.890148      17.961948      17.961775      17.889986      17.745646      17.817953      17.818104      17.745785      17.745951      17.818283      17.818493      17.746147      17.817724      17.745436      17.745529      17.817827      17.889851      17.961628      17.961506      17.889736      17.889643      17.961403      17.961317      17.889566      17.817572      17.817640      17.745361      17.745302      17.745256      17.745220      17.817476      17.817518      17.889505      17.961246      17.961191      17.889456      17.889418      17.961145      17.961111      17.889389      17.817421      17.745180      17.745195      17.817446      17.745169      17.817406      17.817396      17.745163      17.745163      17.745163      17.817387      17.817390      17.889341      17.889334      17.961039      17.961048      17.961063      17.889351      17.889366      17.961082      18.032593      18.103935      18.103905      18.032566      18.032547      18.032534      18.103863      18.103882      18.175095      18.175074      18.246214      18.246241      18.246275      18.175125      18.175159      18.246317      18.175259      18.246428      18.246367      18.175205      18.103975      18.032625      18.032667      18.104023      18.104080      18.032719      18.032782      18.104153      18.175404      18.175325      18.246500      18.246588      18.317753      18.388954      18.388851      18.317659      18.317579      18.317513      18.388691      18.388765      18.460020      18.459940      18.531271      18.531359      18.531458      18.460115      18.460224      18.531574      18.602962      18.602839      18.674105      18.674234      18.745037      18.814636      18.814493      18.744900      18.744780      18.814367      18.814257      18.744675      18.673891      18.673990      18.602732      18.602640      18.602560      18.602491      18.673733      18.673807      18.744585      18.814159      18.814075      18.744505      18.744438      18.814003      18.813942      18.744379      18.673616      18.673670      18.602432      18.602383      18.531034      18.531080      18.459766      18.459724      18.388496      18.317339      18.317371      18.388533      18.388577      18.317410      18.317455      18.388628      18.459871      18.531197      18.531134      18.459814      18.459642      18.530941      18.530922      18.459625      18.388411      18.317265      18.317278      18.388424      18.388443      18.317293      18.317314      18.388468      18.459692      18.459663      18.530966      18.530998      18.602341      18.602306      18.673532      18.673571      18.744331      18.813889      18.813845      18.744289      18.744255      18.813808      18.813780      18.744228      18.673477      18.673502      18.602278      18.602257      18.602240      18.602226      18.673443      18.673456      18.744207      18.813757      18.813740      18.744192      18.744183      18.813728      18.813725      18.744177      18.673429      18.673433      18.602219      18.602215      18.530886      18.459593      18.459597      18.530888      18.530907      18.530895      18.459602      18.459612      18.388399      18.388391      18.317249      18.317255      18.317245      18.388386      18.388384      18.317244      18.246136      18.246138      18.175013      18.175011      18.103817      18.03