<VTKFile type="UnstructuredGrid" version="1.0" byte_order="LittleEndian" header_type="UInt64">
  <UnstructuredGrid>
    <Piece NumberOfPoints="40528" NumberOfCells="18337">
      <CellData Scalars="Scalars_">
        <DataArray type="Float32" Name="Scalars_" format="ascii">
     11.967578      11.967595      11.929136      11.929119      11.860616      11.771944      11.771960      11.860633      11.860667      11.771994      11.772044      11.860719      11.929224      11.929172      11.967630      11.967684      11.967756      11.967849      11.929386      11.929296      11.860788      11.772112      11.772199      11.860877      11.860987      11.772305      11.772432      11.861116      11.929631      11.929498      11.967961      11.968096      11.968254      11.968437      11.929968      11.929787      11.861270      11.772582      11.772756      11.861447      11.861651      11.772955      11.773183      11.861884      11.930413      11.930176      11.968647      11.968886      11.969157      11.969461      11.930983      11.930681      11.862148      11.773440      11.773731      11.862445      11.862778      11.774058      11.774424      11.863150      11.931698      11.931320      11.969803      11.970183      11.970606      11.971075      11.932583      11.932117      11.863564      11.774831      11.775285      11.864023      11.864532      11.775786      11.776342      11.865094      11.933665      11.933098      11.971594      11.972165      11.972795      11.973485      11.934978      11.934291      11.865714      11.776955      11.777629      11.866394      11.867141      11.778369      11.779180      11.867958      11.936553      11.935730      11.974241      11.975067      11.975968      11.976950      11.938428      11.937450      11.868851      11.780066      11.781034      11.869823      11.870882      11.782088      11.783235      11.872031      11.940645      11.939491      11.978016      11.979173      11.980424      11.981777      11.943245      11.941895      11.873278      11.784478      11.785826      11.874626      11.876083      11.787283      11.788856      11.877655      11.946276      11.944704      11.983237      11.984810      11.892387      11.803662      11.806403      11.895105      11.963667      12.002179      11.999483      11.960965      11.958426      11.996951      11.994575      11.956046      11.887446      11.889837      11.801093      11.798686      11.796435      11.885208      11.883117      11.794333      11.792375      11.790550      11.879347      11.881165      11.949782      11.947967      11.986502      11.988317      11.990264      11.951730      11.953815      11.992348      11.812424      11.809320      11.897996      11.901068      11.969591      11.966540      12.005043      12.008083      12.014718      12.011306      11.972825      11.976251      11.907781      11.904326      11.815718      11.819213      11.826831      11.822914      11.911436      11.915300      11.983703      11.979875      12.018326      12.022135      12.030389      12.026155      11.987742      11.992001      11.923685      11.919381      11.830970      11.835340      11.960709      11.873052      11.879560      11.967077      12.034801      12.072880      12.066664      12.028531      12.022541      12.060721      12.055044      12.016820      11.948821      11.954626      11.866841      11.860920      11.855279      11.943287      11.938013      11.849908      11.844800      11.839947      11.928221      11.932994      12.001201      11.996485      12.034846      12.039534      12.044457      12.006158      12.011361      12.049625      11.893510      11.886376      11.973742      11.980711      12.048205      12.041355      12.079377      12.086164      12.100641      12.093249      12.055359      12.062826      11.995603      11.987994      11.900973      11.908776      11.925451      11.916931      12.003546      12.011834      12.078737      12.070616      12.108349      12.116383      12.133467      12.124752      12.087203      12.096024      12.029499      12.020481      11.934349      11.943639      10.563582      10.430696      10.443179      10.575629      10.707030      10.837221      10.826024      10.695400      10.684388      10.815429      10.805403      10.673965      10.541337      10.552159      10.418839      10.407591      10.272801      10.284540      10.149339      10.137010      10.000174      9.862161      9.875998      10.013203      10.026964      9.890657      9.906153      10.041469      10.176007      10.162335      10.296906      10.309906      10.323540      10.337801      10.205362      10.190351      10.056716      9.922483      9.939633      10.072702      10.089420      9.957561      9.976192      10.106858      10.237311      10.221024      10.352672      10.368119      10.499575      10.630594      10.615776      10.484488      10.470064      10.456298      10.588326      10.601698      10.732282      10.719313      10.849052      10.861558      10.874784      10.745982      10.760464      10.888781      11.015499      11.140738      11.128002      11.002109      10.989444      10.977460      11.104497      11.115935      11.240971      11.230069      11.353930      11.364327      11.375261      11.252453      11.264545      11.386758      11.506925      11.495972      11.613797      11.624258      11.737536      11.844918      11.835292      11.727518      11.717950      11.826085      11.817281      11.708812      11.594304      11.475603      11.485539      11.603820      11.576581      11.457134      11.466142      11.585231      11.700087      11.808863      11.800817      11.691758      11.683811      11.793132      11.785792      11.676231      11.560485      11.568337      11.448561      11.440404      11.317216      11.191715      11.200565      11.325706      11.344041      11.334641      11.209891      11.219718      11.093656      11.083378      10.955376      10.966116      10.945207      11.073636      11.064404      10.935579      10.926469      11.055659      11.047378      10.917850      10.909699      10.901999      11.032125      11.039538      11.167821      11.160680      11.287350      11.294236      11.301497      11.175363      11.183321      11.309153      11.432648      11.425275      11.545892      11.553008      11.669006      11.778788      11.772107      11.662122      11.655566      11.765738      11.759671      11.649328      11.532692      11.411623      11.418271      11.539124      11.520786      11.399338      11.405315      11.526584      11.643397      11.753897      11.748405      11.637763      11.632414      11.743187      11.738233      11.627341      11.510082      11.515289      11.393676      11.388319      11.263286      11.135794      11.141493      11.268807      11.280827      11.274650      11.147531      11.153921      11.025116      11.018497      10.887865      10.894726      10.881397      11.012250      11.006360      10.875305      10.742817      10.608991      10.615519      10.749121      10.762936      10.755821      10.622462      10.629842      10.495492      10.487833      10.351941      10.359900      10.344464      10.480631      10.473867      10.337448      10.199709      10.206995      10.068181      10.060601      9.920060      9.777995      9.786218      9.927953      9.936400      9.795035      9.804478      9.945428      10.084919      10.076279      10.214769      10.223053      10.231866      10.241229      10.103914      10.094123      9.955064      9.814577      9.825364      9.965332      9.976258      9.836870      9.849127      9.987864      10.125340      10.114313      10.251161      10.261680      10.396935      10.386857      10.521408      10.531094      10.664107      10.795919      10.786954      10.654787      10.645985      10.778481      10.770483      10.637676      10.503628      10.368359      10.377337      10.512259      10.441461      10.303961      10.308612      10.445977      10.581992      10.716662      10.712395      10.577604      10.573515      10.708414      10.704705      10.569712      10.433355      10.437259      10.299640      10.295630      10.156506      10.160625      10.020167      10.015933      9.873853      9.730200      9.734674      9.878206      9.882920      9.739528      9.744783      9.888018      10.029688      10.024746      10.165072      10.169866      10.175024      10.180568      10.040747      10.035014      9.893519      9.750465      9.756601      9.899450      9.905834      9.763216      9.770338      9.912696      10.053518      10.046907      10.186516      10.192889      10.330874      10.467524      10.461580      10.324723      10.318975      10.313611      10.450825      10.456020      10.591732      10.586697      10.721231      10.726115      10.731330      10.597116      10.602862      10.736892      10.869575      11.000813      10.995592      10.864188      10.859132      10.854391      10.986080      10.990686      11.120590      11.116112      11.244163      11.248523      11.253156      11.125356      11.130419      11.258073      11.383255      11.378472      11.500496      11.505155      11.622536      11.733534      11.729083      11.617988      11.613688      11.724870      11.720887      11.609627      11.491945      11.369712      11.373961      11.496096      11.484355      11.361952      11.365711      11.488035      11.605796      11.717127      11.713580      11.602187      11.598791      11.710239      11.707097      11.595600      11.477649      11.480895      11.358421      11.355112      11.229232      11.100821      11.104273      11.232610      11.240065      11.236217      11.107965      11.111908      10.981762      10.977717      10.845798      10.849951      10.841919      10.973935      10.970403      10.838302      10.834931      10.967108      10.964040      10.831798      10.828887      10.826188      10.958536      10.961185      11.091789      11.089186      11.217812      11.220372      11.223123      11.094589      11.097596      11.226072      11.352014      11.349116      11.471756      11.474605      11.592606      11.704144      11.701374      11.589799      11.587172      11.698778      11.696350      11.584717      11.466606      11.343890      11.346412      11.469092      11.462133      11.339362      11.341543      11.464290      11.582426      11.694082      11.691966      11.580293      11.578307      11.689996      11.688163      11.576463      11.458272      11.460130      11.337338      11.335464      11.209281      11.080542      11.082457      11.211175      11.215431      11.213223      11.084529      11.086769      10.956080      10.953807      10.821382      10.823690      10.819252      10.951707      10.949769      10.817290      10.683294      10.547878      10.549892      10.685282      10.689789      10.687443      10.552087      10.554473      10.417778      10.415351      10.277228      10.279698      10.274963      10.413121      10.411078      10.272891      10.133285      10.135388      9.994349      9.992214      9.849625      9.705455      9.707654      9.851791      9.854171      9.710073      9.712728      9.856778      9.999250      9.996690      10.137691      10.140205      10.142948      10.145933      10.005097      10.002048      9.859632      9.715637      9.718819      9.862747      9.866143      9.722293      9.726080      9.869838      10.012022      10.008416      10.149177      10.152696      10.291917      10.288482      10.426380      10.429734      10.566179      10.701257      10.698052      10.562901      10.559868      10.695082      10.692331      10.557062      10.420416      10.282389      10.285311      10.423279      7.335453      7.158353      7.163536      7.340570      7.514878      7.686646      7.681758      7.509869      7.505348      7.677338      7.673348      7.501277      7.326708      7.330847      7.153697      7.149521      7.145782      7.322997      7.319675      7.142438      7.139455      7.136799      7.314063      7.316708      7.491406      7.488788      7.661053      7.663638      7.666530      7.494340      7.497620      7.669756      7.839506      8.006958      8.003837      7.836334      7.833488      7.830939      7.998518      8.001033      8.166339      8.163856      8.327008      8.329463      8.332196      8.169106      8.172181      8.335231      8.338593      8.342311      8.179364      8.175591      8.010422      7.843031      7.846941      8.014257      8.018496      7.851264      7.856036      8.023167      8.188116      8.350926      8.346413      8.183529      8.665863      8.507180      8.511626      8.670240      8.826803      8.981363      8.977139      8.822500      8.818583      8.973289      8.969788      8.815023      8.658268      8.661881      8.503139      8.499473      8.496154      8.654994      8.652035      8.493157      8.490457      8.488028      8.646962      8.649365      8.806237      8.803861      8.958773      8.961123      8.963727      8.808875      8.811796      8.966608      9.119482      9.270473      9.267678      9.116644      9.114074      9.111753      9.262853      9.265144      9.414392      9.412130      9.559644      9.561874      9.564332      9.416888      9.419637      9.567035      9.570001      9.573250      9.425973      9.422659      9.273548      9.122611      9.126053      9.276928      9.280634      9.129832      9.133973      9.284690      9.433572      9.580680      9.576802      9.429604      9.325194      9.175527      9.183644      9.333081      9.480627      9.626348      9.618963      9.472984      9.465907      9.612115      9.605774      9.459364      9.311161      9.161100      9.168024      9.317899      9.299221      9.148848      9.154719      9.304946      9.453321      9.599910      9.594495      9.447749      9.442618      9.589502      9.584905      9.437901      9.289122      9.138504      9.143453      9.293957      8.521860      8.516509      8.675043      8.680305      8.836684      8.831521      8.985990      8.991048      9.002583      8.996568      8.842324      8.848475      8.692336      8.686057      8.527714      8.534105      8.548656      8.541073      8.699179      8.706624      8.862455      8.855174      9.009124      9.016230      9.032276      9.023934      8.870359      8.878926      8.723494      8.714714      8.556897      8.565842      8.070732      7.904883      7.914469      8.080031      8.243898      8.405925      8.396877      8.234762      8.226308      8.388528      8.380835      8.218506      8.054160      7.887823      7.896010      8.062117      8.040102      7.873382      7.880291      8.046832      8.211323      8.373761      8.367269      8.204726      8.198682      8.361321      8.355886      8.193155      8.028302      7.861289      7.867059      8.033937      7.175695      7.169297      7.346246      7.352531      7.526535      7.520419      7.692038      7.697973      7.711629      7.704490      7.533271      7.540676      7.367148      7.359479      7.182791      7.190657      7.209010      7.199367      7.375601      7.384903      7.557687      7.548798      7.719431      7.727935      7.747193      7.737177      7.567390      7.577956      7.406326      7.395121      7.219681      7.231488      7.516140      7.355891      7.380103      7.535850      7.695036      7.857433      7.840564      7.677624      7.660789      7.824659      7.809633      7.644704      7.479140      7.497158      7.333064      7.311927      7.292572      7.462231      7.446500      7.274961      7.258997      7.244551      7.418585      7.431960      7.601823      7.589422      7.758010      7.769652      7.782133      7.615175      7.629478      7.795459      7.960212      8.124399      8.112217      7.947665      7.935853      7.924788      8.090036      8.100762      8.264324      8.253744      8.415712      8.426285      8.437692      8.275658      8.287753      8.449993      8.463259      8.477581      8.314185      8.300605      8.137300      7.973463      7.987357      8.150903      8.165195      8.001789      8.016579      8.180190      8.343151      8.509974      8.493090      8.328420      8.808912      8.653554      8.670945      8.825367      8.976376      9.126340      9.111668      8.961059      8.946676      9.097851      9.084898      8.933228      8.779575      8.793675      8.637687      8.623141      8.609762      8.766532      8.754469      8.597428      8.586046      8.575539      8.733010      8.743316      8.898222      8.888200      9.041294      9.051027      9.061515      8.909039      8.920693      9.072794      9.223046      9.371334      9.360682      9.212075      9.201879      9.192415      9.341599      9.350785      9.497756      9.488873      9.634304      9.642861      9.652057      9.507318      9.517598      9.661924      9.672503      9.683832      9.540495      9.528642      9.382789      9.234836      9.247486      9.395095      9.408313      9.261045      9.275567      9.422507      9.566839      9.708902      9.695951      9.553209      9.558681      9.419442      9.455215      9.584822      9.716162      9.846856      9.826056      9.693236      9.671494      9.806291      9.787558      9.651018      9.511713      9.366611      9.390854      9.534249      9.471853      9.325722      9.345180      9.490975      9.631821      9.769855      9.753167      9.613868      9.597100      9.737470      9.722728      9.581448      9.437759      9.291116      9.307785      9.454166      8.711458      8.690130      8.843113      8.862201      9.009604      8.992587      9.141830      9.158056      9.191965      9.174858      9.027254      9.045254      8.904314      8.882630      8.735374      8.762415      8.828089      8.793169      8.927010      8.950213      9.080416      9.063176      9.208915      9.224927      9.247728      9.238661      9.096206      9.109715      8.993335      8.973025      8.871846      8.932378      8.326494      8.229908      8.245275      8.541609      8.662324      8.524373      8.515300      8.652555      8.637845      8.282813      8.219415      8.312335      8.231495      8.058237      8.066830      8.253595      8.394088      8.601675      8.573140      8.385337      8.372534      8.549296      8.528539      8.358065      8.195978      8.031404      8.045671      8.212841      7.429623      7.405055      7.555953      7.576057      7.730373      7.712758      7.875491      7.895252      7.945510      7.917827      7.747171      7.761850      7.615173      7.595816      7.452110      7.470392      7.481686      7.634802      7.656977      7.771842      7.982960      8.051558      8.155905      8.097501      7.887601      7.670617      7.678947      7.606765      8.789790      8.944763      8.944206      8.789239      8.632284      8.473289      8.473833      8.632832      8.633462      8.474461      8.475182      8.634186      8.791151      8.790424      8.945401      8.946132      9.099181      9.098448      9.249618      9.250355      9.399710      9.547304      9.546560      9.398970      9.398317      9.545904      9.545326      9.397745      9.248404      9.248971      9.097805      9.097243      9.096754      9.096331      9.247479      9.247909      9.397244      9.544820      9.544377      9.396809      9.396430      9.543992      9.543657      9.396102      9.246786      9.247107      9.095965      9.095651      8.942638      8.787693      8.787995      8.942946      8.943724      8.943306      8.788349      8.788761      8.631811      8.631405      8.472419      8.472821      8.472075      8.631057      8.630760      8.471785      8.310714      8.147495      8.147778      8.311001      8.311738      8.311339      8.148113      8.148507      7.983077      7.982686      7.815003      7.815392      7.814674      7.982354      7.982074      7.814397      7.644408      7.644682      7.472323      7.472051      7.297267      7.120000      7.120269      7.297538      7.297861      7.120590      7.120972      7.298245      7.473033      7.645396      7.645010      7.472648      7.474019      7.646385      7.645852      7.473487      7.298697      7.121422      7.121951      7.299228      7.299848      7.122568      7.123286      7.300567      7.475359      7.474639      7.647005      7.647725      7.817722      7.985411      7.984693      7.817004      7.816382      7.815849      7.983536      7.984071      8.149507      8.148969      8.312202      8.312742      8.313367      8.150129      8.150847      8.314087      8.314913      8.151674      8.152619      8.315857      8.318152      8.316932      8.153698      8.154923      7.989502      7.988269      7.820590      7.821830      7.819502      7.987186      7.986238      7.818551      7.648555      7.649509      7.477149      7.476191      7.301399      7.124116      7.125073      7.302357      7.303457      7.126173      7.127430      7.304715      7.479500      7.651850      7.650603      7.478246      7.482549      7.654878      7.653269      7.480928      7.306149      7.128865      7.130497      7.307778      7.309625      7.132347      7.134439      7.311711      7.486455      7.484384      7.656697      7.658748      7.828662      7.996270      7.994265      7.826635      7.824834      7.823239      7.990900      7.992482      8.157882      8.156313      8.319533      8.321091      8.322844      8.159649      8.161633      8.324809      8.485849      8.483901      8.642872      8.644805      8.801723      8.956657      8.954758      8.799808      8.798093      8.953056      8.951535      8.796563      8.639606      8.480614      8.482162      8.641146      8.479239      8.638239      8.637027      8.478024      8.476952      8.476008      8.635014      8.635956      8.792924      8.791981      8.946962      8.947906      8.948975      8.793993      8.795201      8.950180      9.103227      9.254398      9.253201      9.102026      9.100959      9.100015      9.251190      9.252135      9.401493      9.400548      9.548144      9.549090      9.550153      9.402557      9.403751      9.551342      9.406579      9.554152      9.552671      9.405087      9.255742      9.104577      9.106089      9.257243      9.258919      9.107777      9.109659      9.260783      9.410085      9.408239      9.555799      9.557624      9.703461      9.701654      9.845870      9.847655      9.990272      10.131367      10.129622      9.988506      9.986906      10.128036      10.126600      9.985458      9.842796      9.698554      9.700024      9.844254      9.697232      9.841482      9.840302      9.696047      9.694986      9.694040      9.838296      9.839243      9.981919      9.980973      10.122128      10.123075      10.124130      9.982976      9.984152      10.125301      10.264985      10.403248      10.402085      10.263818      10.262766      10.261819      10.400088      10.401034      10.537912      10.536965      10.672456      10.673403      10.674450      10.538961      10.540120      10.675605      10.542801      10.678269      10.676875      10.541396      10.404531      10.266276      10.267701      10.405947      10.407502      10.269272      10.270997      10.409209      10.546032      10.544343      10.679798      10.681470      10.815487      10.947986      10.946346      10.813831      10.812316      10.810930      10.943464      10.944841      11.075657      11.074287      11.203074      11.204436      11.205920      11.077150      11.078775      11.207532      11.333730      11.332129      11.454960      11.456551      11.574753      11.686462      11.684885      11.573171      11.571708      11.683427      11.682079      11.570358      11.452140      11.453492      11.330653      11.329296      11.328051      11.326908      11.449755      11.450896      11.569117      11.680837      11.679693      11.567974      11.566927      11.678642      11.677679      11.565968      11.447752      11.448709      11.325864      11.324910      11.198685      11.199636      11.070845      11.069895      10.939064      10.806521      10.807469      10.940013      10.941058      10.808515      10.809666      10.942206      11.073034      11.201824      11.200681      11.071889      11.067544      11.196323      11.195681      11.066907      10.936093      10.803567      10.804193      10.936726      10.937427      10.804890      10.805664      10.938205      11.069032      11.068251      11.197034      11.197820      11.324041      11.323252      11.446086      11.446880      11.565090      11.676798      11.675993      11.564291      11.563563      11.675259      11.674592      11.562902      11.444709      11.445364      11.322536      11.321887      11.321301      11.320774      11.443583      11.444118      11.562304      11.673986      11.673438      11.561763      11.561275      11.672942      11.672497      11.560836      11.442670      11.443102      11.320300      11.319875      11.193695      11.064949      11.065360      11.194113      11.195101      11.194580      11.065820      11.066334      10.935527      10.935019      10.802505      10.803006      10.802058      10.934566      10.934162      10.801661      10.667637      10.668027      10.532572      10.532188      10.395351      10.257124      10.257493      10.395728      10.396154      10.257913      10.258389      10.396636      10.533493      10.668962      10.668467      10.533005      10.536112      10.671600      10.670830      10.535345      10.534657      10.670137      10.669517      10.534041      10.258925      10.397180      10.397789      10.259530      10.260209      10.398473      10.399237      10.260969      9.980127      10.121282      10.120523      9.979373      9.978703      10.119849      10.119250      9.978109      9.691207      9.835447      9.836036      9.691790      9.692451      9.836701      9.837452      9.693198      9.834474      9.690246      9.690694      9.834929      9.977584      10.118719      10.118250      9.977122      9.976716      10.117838      10.117476      9.976361      9.833726      9.834074      9.689853      9.689512      9.689217      9.688961      9.833161      9.833424      9.976051      10.117159      10.116883      9.975782      9.975551      10.116644      10.116437      9.975350      9.832742      9.688554      9.688742      9.832936      9.688395      9.832577      9.832436      9.688259      9.688146      9.688050      9.832217      9.832316      9.974908      9.974803      10.115868      10.115977      10.116107      9.975032      9.975179      10.116259      10.255874      10.394067      10.393903      10.255715      10.255580      10.255466      10.393642      10.393763      10.530553      10.530429      10.665828      10.665957      10.666109      10.530700      10.530869      10.666286      10.531294      10.666721      10.666489      10.531067      10.394258      10.256058      10.256271      10.394478      10.394731      10.256517      10.256801      10.395020      10.531851      10.531553      10.666988      10.667293      10.801310      10.933803      10.933486      10.800999      10.800725      10.800486      10.932960      10.933206      11.063972      11.063720      11.192438      11.192698      11.192991      11.064259      11.064583      11.193322      11.319495      11.319157      11.441938      11.442284      11.560442      11.672096      11.671737      11.560090      11.559776      11.671416      11.671132      11.559498      11.441359      11.441631      11.318856      11.318591      11.318357      11.318151      11.440907      11.441118      11.559252      11.670879      11.670657      11.559034      11.558846      11.670463      11.670294      11.558681      11.440564      11.440723      11.317973      11.317819      11.191689      11.191838      11.063137      11.062993      10.932255      10.799803      10.799937      10.932394      10.932556      10.800095      10.800276      10.932744      11.063498      11.192211      11.192012      11.063305      11.062679      11.191364      11.191292      11.062610      10.931887      10.799449      10.799513      10.931953      10.932036      10.799592      10.799688      10.932136      11.062869      11.062766      11.191454      11.191562      11.317687      11.317575      11.440311      11.440428      11.558539      11.670148      11.670025      11.558419      11.558320      11.669921      11.669837      11.558238      11.440137      11.440215      11.317482      11.317407      11.317348      11.317305      11.440030      11.440075      11.558174      11.669771      11.669723      11.558127      11.558096      11.669690      11.669674      11.558081      11.439985      11.440001      11.317276      11.317262      11.191153      11.062476      11.062490      11.191166      11.191236      11.191194      11.062515      11.062555      10.931834      10.931796      10.799362      10.799398      10.799338      10.931771      10.931758      10.799326      10.665372      10.665383      10.530005      10.529994      10.393229      10.255075      10.255084      10.393240      10.393260      10.255103      10.255133      10.393291      10.530060      10.665441      10.665406      10.530026      10.530323      10.665717      10.665626      10.530235      10.530163      10.665549      10.665488      10.530105      10.255173      10.393334      10.393390      10.255225      10.255290      10.393458      10.393542      10.255370      9.974716      10.115776      10.115701      9.974644      9.974586      10.115639      10.115589      9.974539      9.687815      9.831966      9.832010      9.687856      9.687908      9.832066      9.832134      9.687972      9.831909      9.687761      9.687783      9.831933      9.974504      10.115551      10.115523      9.974477      9.974461      10.115505      10.115497      9.974452      9.831885      9.831893      9.687746      9.687739      9.541953      9.394465      9.394472