<VTKFile type="UnstructuredGrid" version="1.0" byte_order="LittleEndian" header_type="UInt64">
  <UnstructuredGrid>
    <Piece NumberOfPoints="40528" NumberOfCells="18337">
      <CellData Scalars="Scalars_">
        <DataArray type="Float32" Name="Scalars_" format="ascii">
     14.970032      14.970043      14.936330      14.936318      14.877465      14.803204      14.803215      14.877477      14.877500      14.803237      14.803271      14.877535      14.936390      14.936354      14.970068      14.970105      14.970155      14.970219      14.936502      14.936440      14.877583      14.803317      14.803375      14.877643      14.877717      14.803448      14.803534      14.877807      14.936670      14.936578      14.970297      14.970390      14.970500      14.970628      14.936904      14.936778      14.877912      14.803636      14.803754      14.878034      14.878175      14.803890      14.804047      14.878336      14.937213      14.937048      14.970775      14.970942      14.971132      14.971347      14.937613      14.937401      14.878519      14.804224      14.804425      14.878726      14.878959      14.804651      14.804906      14.879219      14.938117      14.937850      14.971587      14.971857      14.972158      14.972492      14.938745      14.938415      14.879511      14.805191      14.805509      14.879835      14.880197      14.805861      14.806253      14.880595      14.939517      14.939112      14.972863      14.973272      14.973724      14.974221      14.940458      14.939965      14.881037      14.806687      14.807166      14.881523      14.882058      14.807693      14.808272      14.882645      14.941593      14.940999      14.974767      14.975365      14.976018      14.976730      14.942950      14.942242      14.883287      14.808908      14.809602      14.883989      14.884755      14.810361      14.811188      14.885589      14.944562      14.943723      14.977507      14.978350      14.979264      14.980253      14.946459      14.945472      14.886494      14.812087      14.813064      14.887475      14.888536      14.814121      14.815265      14.889684      14.948676      14.947525      14.981323      14.982476      14.900503      14.826103      14.828117      14.902506      14.961484      14.995283      14.993291      14.959488      14.957615      14.991420      14.989665      14.955859      14.896865      14.898624      14.824216      14.822451      14.820801      14.895220      14.893684      14.819263      14.817831      14.816500      14.890922      14.892253      14.951249      14.949916      14.983719      14.985054      14.986487      14.952682      14.954216      14.988023      14.832549      14.830264      14.904638      14.906906      14.965862      14.963607      14.997402      14.999652      15.004564      15.002038      14.968255      14.970790      14.911865      14.909313      14.834976      14.837553      14.843173      14.840283      14.914567      14.917425      14.976307      14.973473      15.007236      15.010058      15.016173      15.013036      14.979298      14.982451      14.923626      14.920443      14.846228      14.849452      14.950985      14.877270      14.882063      14.955684      15.014100      15.047603      15.043013      15.009472      15.005046      15.038622      15.034425      15.000817      14.942208      14.946496      14.872694      14.868328      14.864167      14.938119      14.934221      14.860205      14.856436      14.852853      14.926980      14.930511      14.989263      14.985771      15.019475      15.022946      15.026592      14.992930      14.996780      15.030416      14.892325      14.887078      14.960596      14.965730      15.023985      15.018935      15.052397      15.057400      15.068057      15.062618      15.029253      15.034747      14.976685      14.971090      14.897808      14.903537      14.915759      14.909517      14.982519      14.988602      15.046436      15.040473      15.073723      15.079621      15.092145      15.085760      15.052646      15.059108      15.001543      14.994940      14.922271      14.929062      13.863683      13.764768      13.773838      13.872398      13.970513      14.068147      14.060108      13.962136      13.954217      14.052505      14.045317      13.946733      13.847654      13.855441      13.756185      13.748074      13.647995      13.656469      13.556312      13.547413      13.446285      13.344528      13.354469      13.455672      13.465646      13.365068      13.376345      13.476224      13.575721      13.565743      13.665440      13.674915      13.684907      13.695416      13.597348      13.586254      13.487416      13.388311      13.400968      13.499233      13.511678      13.414296      13.428251      13.524757      13.621213      13.609003      13.706440      13.717966      13.815283      13.912469      13.901617      13.804119      13.793499      13.783410      13.881610      13.891341      13.988745      13.979374      14.076647      14.085635      14.095146      13.998660      14.009156      14.105216      14.200710      14.295761      14.286640      14.191113      14.182034      14.173444      14.269794      14.277993      14.373514      14.365685      14.461005      14.468494      14.476363      14.381754      14.390428      14.484630      14.578111      14.570208      14.662810      14.670385      14.760649      14.847587      14.840568      14.753367      14.746406      14.833847      14.827413      14.739750      14.648673      14.555492      14.562674      14.655578      14.635796      14.542126      14.548648      14.642083      14.733389      14.821256      14.815366      14.727312      14.721508      14.809733      14.804350      14.715968      14.624082      14.629799      14.535914      14.530000      14.434517      14.338105      14.344474      14.440649      14.453878      14.447098      14.351184      14.358249      14.262019      14.254645      14.157609      14.165310      14.150317      14.247655      14.241028      14.143415      14.136886      14.234748      14.228802      14.130710      14.124872      14.119359      14.217850      14.223173      14.320895      14.315749      14.412921      14.417903      14.423156      14.326328      14.332061      14.428690      14.524371      14.519018      14.613445      14.618633      14.710683      14.799209      14.794302      14.705643      14.700842      14.789621      14.785161      14.696271      14.603814      14.509100      14.513931      14.608509      14.595121      14.500170      14.504516      14.599355      14.691924      14.780913      14.776873      14.687793      14.683870      14.773032      14.769385      14.680150      14.587304      14.591106      14.496053      14.492158      14.395507      14.297821      14.301926      14.399503      14.408200      14.403730      14.306274      14.310879      14.212819      14.208069      14.109251      14.114157      14.104630      14.203588      14.199367      14.100283      14.000627      13.900409      13.905032      14.005109      14.014949      14.009878      13.909959      13.915204      13.814905      13.809475      13.708394      13.714021      13.703124      13.804381      13.799609      13.698193      13.596117      13.601216      13.498612      13.493333      13.389786      13.285416      13.291083      13.395255      13.401134      13.297188      13.303756      13.407444      13.510341      13.504274      13.606677      13.612514      13.618748      13.625395      13.523761      13.516829      13.414208      13.310815      13.318393      13.421452      13.429197      13.326518      13.335220      13.437468      13.539034      13.531157      13.632474      13.640001      13.740418      13.733202      13.833369      13.840302      13.939667      14.038524      14.032106      13.932998      13.926708      14.026049      14.020334      13.920782      13.820687      13.720020      13.726408      13.826837      13.776922      13.674876      13.678090      13.780063      13.881392      13.982112      13.979107      13.878321      13.875465      13.976310      13.973709      13.872816      13.771308      13.774008      13.671900      13.669147      13.566290      13.569098      13.465553      13.462689      13.358297      13.253065      13.256042      13.361217      13.364392      13.259285      13.262813      13.367839      13.472027      13.468660      13.572139      13.575427      13.578979      13.582808      13.479604      13.475669      13.371575      13.266644      13.270799      13.375618      13.379988      13.275297      13.280162      13.384704      13.488418      13.483847      13.586929      13.591360      13.693585      13.795143      13.790969      13.689286      13.685281      13.681553      13.783442      13.787073      13.888229      13.884691      13.985335      13.988787      13.992477      13.892021      13.896076      13.996421      14.096196      14.195393      14.191656      14.092360      14.088762      14.085394      14.184857      14.188148      14.286884      14.283668      14.381684      14.384833      14.388181      14.290310      14.293952      14.391736      14.488478      14.485003      14.580303      14.583705      14.676625      14.765927      14.762651      14.673290      14.670138      14.759552      14.756622      14.667162      14.574064      14.478641      14.481726      14.577092      14.568531      14.473012      14.475739      14.571213      14.664356      14.753857      14.751250      14.661715      14.659231      14.748797      14.746490      14.656898      14.563651      14.566012      14.470456      14.468061      14.370924      14.272712      14.275181      14.373355      14.378727      14.375953      14.277824      14.280650      14.181776      14.178894      14.079302      14.082244      14.076559      14.176202      14.173692      14.074004      14.071630      14.171354      14.169182      14.069426      14.067384      14.065495      14.165297      14.167165      14.266273      14.264423      14.362737      14.364568      14.366538      14.268266      14.270410      14.368654      14.465822      14.463731      14.559371      14.561440      14.654712      14.744326      14.742296      14.652665      14.650751      14.740397      14.738623      14.648965      14.555641      14.459967      14.461782      14.557441      14.552411      14.456717      14.458281      14.553967      14.647301      14.736967      14.735425      14.645753      14.644315      14.733991      14.732659      14.642982      14.549633      14.550968      14.455268      14.453929      14.356666      14.258316      14.259664      14.358008      14.361038      14.359464      14.261127      14.262711      14.163568      14.161972      14.062142      14.063750      14.060662      14.160501      14.159148      14.059304      13.958844      13.857780      13.859150      13.960209      13.963318      13.961697      13.860648      13.862282      13.760625      13.758977      13.656651      13.658311      13.655134      13.757470      13.756095      13.653752      13.550712      13.552098      13.448318      13.446925      13.342347      13.236934      13.238336      13.343745      13.345288      13.239887      13.241601      13.346990      13.451540      13.449853      13.553624      13.555299      13.557132      13.559136      13.455420      13.453392      13.348860      13.243488      13.245564      13.350912      13.353160      13.247843      13.250338      13.355617      13.460056      13.457638      13.561322      13.563703      13.666605      13.664263      13.766503      13.768810      13.870361      13.971295      13.969059      13.868091      13.865993      13.966990      13.965078      13.864060      13.762422      13.660127      13.662107      13.764378      11.544092      11.420897      11.423903      11.547078      11.668823      11.789231      11.786336      11.665879      11.663258      11.783751      11.781447      11.660929      11.539092      11.541440      11.418233      11.415878      11.413802      11.537016      11.535188      11.411976      11.410374      11.408972      11.532172      11.533580      11.655440      11.654032      11.774589      11.775994      11.777593      11.657044      11.658867      11.779404      11.898674      12.016717      12.014928      11.896874      11.895284      11.893880      12.011940      12.013342      12.130200      12.128798      12.244481      12.245884      12.247466      12.131783      12.133566      12.249246      12.251239      12.253468      12.137809      12.135568      12.018730      11.900701      11.902978      12.020987      12.023510      11.905529      11.908380      12.026323      12.143097      12.258717      12.255953      12.140310      12.483817      12.370450      12.373193      12.486537      12.598767      12.709908      12.707241      12.596072      12.593639      12.704829      12.702652      12.591446      12.479157      12.481364      12.367981      12.365763      12.363775      12.477178      12.475406      12.362000      12.360418      12.359013      12.472416      12.473825      12.586126      12.584717      12.695940      12.697351      12.698930      12.587708      12.589475      12.700691      12.810854      12.919993      12.918248      12.809100      12.807525      12.806113      12.915267      12.916677      13.024839      13.023432      13.130642      13.132047      13.133606      13.026405      13.028141      13.135331      13.137236      13.139335      13.032183      13.030062      12.921929      12.812803      12.814963      12.924070      12.926434      12.817351      12.819987      12.929036      13.037087      13.144175      13.141643      13.034519      12.955689      12.847157      12.852582      12.960986      13.068358      13.174733      13.169719      13.063198      13.058445      13.165091      13.160826      13.054072      12.946342      12.837600      12.842173      12.950817      12.938477      12.829578      12.833410      12.942237      13.050055      13.156899      13.153292      13.046370      13.042994      13.149981      13.146949      13.039906      12.931898      12.822889      12.826079      12.935038      12.379593      12.376232      12.489548      12.492872      12.605028      12.601745      12.712849      12.716086      12.723545      12.719644      12.608641      12.612609      12.500566      12.496536      12.383301      12.387383      12.396791      12.391870      12.504990      12.509839      12.621721      12.616960      12.727817      12.732485      12.743129      12.737578      12.626925      12.632604      12.520947      12.515146      12.402182      12.408075      12.056365      11.939057      11.945322      12.062460      12.178702      12.293963      12.288013      12.172703      12.167201      12.282565      12.277588      12.162169      12.045661      11.928084      11.933321      12.050774      12.036764      11.918996      11.923319      12.041000      12.157580      12.273050      12.268923      12.153406      12.149618      12.265176      12.261783      12.146191      12.029453      11.911555      11.915085      12.032924      11.431107      11.427294      11.550435      11.554199      11.675808      11.672121      11.792465      11.796068      11.804509      11.800072      11.679917      11.684490      11.563122      11.558414      11.435391      11.440199      11.451625      11.445588      11.568373      11.574221      11.695186      11.689566      11.809416      11.814824      11.827288      11.820771      11.701393      11.708232      11.587934      11.580722      11.458384      11.465950      11.662308      11.549872      11.566885      11.676229      11.788289      11.902864      11.890927      11.775974      11.764186      11.879779      11.869349      11.753038      11.636598      11.649045      11.534002      11.519470      11.506316      11.625050      11.614432      11.494489      11.483893      11.474418      11.595919      11.604734      11.723956      11.715740      11.834406      11.842153      11.850548      11.732905      11.742601      11.859610      11.976020      12.092262      12.083972      11.967480      11.959518      11.952136      12.069081      12.076247      12.192294      12.185225      12.300452      12.307517      12.315200      12.199931      12.208148      12.323548      12.332622      12.342497      12.226328      12.216950      12.101122      11.985126      11.994761      12.110550      12.120550      12.004860      12.015296      12.131146      12.246578      12.365111      12.353275      12.236238      12.579188      12.467800      12.479995      12.590734      12.699456      12.807759      12.797462      12.688704      12.678683      12.787831      12.778865      12.669385      12.558848      12.568583      12.456769      12.446738      12.437585      12.549913      12.541711      12.429212      12.421542      12.414515      12.527278      12.534184      12.645525      12.638791      12.749167      12.755727      12.762841      12.652843      12.660783      12.770543      12.879327      12.987047      12.979733      12.871816      12.864878      12.858478      12.966737      12.972975      13.080012      13.073953      13.180161      13.186027      13.192361      13.086568      13.093655      13.199193      13.206554      13.214478      13.109567      13.101307      12.994957      12.887447      12.896216      13.003507      13.012742      12.905675      12.915868      13.022719      13.128082      13.232162      13.223002      13.118476      13.121272      13.019802      13.046328      13.140732      13.236904      13.332955      13.317392      13.219789      13.203689      13.302721      13.288924      13.188644      13.086720      12.981062      12.998762      13.103229      13.057851      12.951525      12.965529      13.071646      13.174649      13.275983      13.263871      13.161658      13.149611      13.252556      13.242001      13.138441      13.033504      12.926849      12.938697      13.045180      12.508777      12.493564      12.603289      12.616899      12.723057      12.710926      12.818706      12.830247      12.854593      12.842275      12.735734      12.748756      12.647266      12.631577      12.525968      12.545535      12.593455      12.567913      12.663795      12.680795      12.774464      12.761815      12.866865      12.878513      12.895196      12.888546      12.786127      12.796177      12.712587      12.697585      12.625550      12.670028      12.239519      12.174146      12.186323      12.395220      12.476214      12.381821      12.374795      12.468780      12.457438      12.206678      12.166004      12.228854      12.168323      12.045129      12.051368      12.184760      12.282973      12.430998      12.410251      12.276645      12.267448      12.393063      12.378242      12.257130      12.142427      12.025841      12.036064      12.154632      11.602189      11.584593      11.690586      11.705101      11.813624      11.800941      11.915757      11.929991      11.966664      11.946390      11.825813      11.836534      11.733871      11.719538      11.618432      11.631732      11.639996      11.748612      11.765431      11.843869      11.994288      12.044440      12.122187      12.078694      11.929708      11.776694      11.781929      11.733390      12.576882      12.688005      12.687727      12.576614      12.464426      12.351132      12.351379      12.464683      12.464988      12.351674      12.352023      12.465347      12.577568      12.577198      12.688332      12.688713      12.798811      12.798419      12.907489      12.907892      13.015989      13.123136      13.122709      13.015574      13.015215      13.122339      13.122018      13.014905      12.906841      12.907141      12.798081      12.797792      12.797547      12.797340      12.906368      12.906585      13.014638      13.121741      13.121504      13.014411      13.014218      13.121302      13.121129      13.014055      12.906032      12.906185      12.797167      12.797023      12.686996      12.575922      12.576049      12.687132      12.687492      12.687296      12.576203      12.576390      12.464211      12.464033      12.350759      12.350927      12.350621      12.463888      12.463770      12.350512      12.236119      12.120566      12.120662      12.236221      12.236511      12.236351      12.120783      12.120935      12.004174      12.004029      11.886064      11.886201      11.885955      12.003915      12.003826      11.885872      11.766678      11.766755      11.646288      11.646215      11.524458      11.401375      11.401437      11.524525      11.524616      11.401524      11.401637      11.524735      11.646509      11.766989      11.766857      11.646384      11.646868      11.767360      11.767155      11.646669      11.524889      11.401785      11.401971      11.525082      11.525319      11.402203      11.402486      11.525610      11.647410      11.647113      11.767612      11.767917      11.887157      12.005162      12.004842      11.886846      11.886586      11.886374      12.004354      12.004575      12.121352      12.121123      12.236707      12.236944      12.237229      12.121628      12.121957      12.237568      12.237968      12.122347      12.122807      12.238438      12.239617      12.238984      12.123343      12.123968      12.007137      12.006522      11.888493      11.889101      11.887973      12.005994      12.005544      11.887531      11.768282      11.768716      11.648194      11.647768      11.525960      11.402828      11.403239      11.526379      11.526876      11.403728      11.404305      11.527462      11.649293      11.769829      11.769228      11.648699      11.650792      11.771341      11.770529      11.649986      11.528148      11.404983      11.405772      11.528947      11.529874      11.406690      11.407751      11.530943      11.652799      11.651725      11.772278      11.773355      11.892647      12.010706      12.009623      11.891567      11.890625      11.889808      12.007852      12.008676      12.125522      12.124690      12.240349      12.241188      12.242147      12.126474      12.127562      12.243240      12.357767      12.356668      12.470060      12.471167      12.583463      12.694682      12.693564      12.582351      12.581368      12.692575      12.691701      12.580503      12.468229      12.354853      12.355700      12.469086      12.354113      12.467479      12.466825      12.353469      12.352912      12.352433      12.465768      12.466258      12.578501      12.578000      12.689157      12.689668      12.690257      12.579079      12.579742      12.690931      12.801072      12.910196      12.909502      12.800387      12.799788      12.799266      12.908358      12.908892      13.017010      13.016465      13.123622      13.124177      13.124807      13.017631      13.018334      13.125521      13.020028      13.127230      13.126326      13.019131      12.910984      12.801851      12.802733      12.911875      12.912878      12.803731      12.804853      12.914004      13.022168      13.021037      13.128244      13.129378      13.235670      13.234534      13.339948      13.341085      13.445664      13.549453      13.548313      13.444526      13.443500      13.547284      13.546357      13.442577      13.338008      13.232605      13.233516      13.338925      13.231792      13.337189      13.336458      13.231071      13.230431      13.229865      13.335234      13.335809      13.440354      13.439770      13.543518      13.544111      13.544779      13.441012      13.441751      13.545525      13.648555      13.750888      13.750128      13.647801      13.647126      13.646523      13.748833      13.749445      13.851109      13.850489      13.951524      13.952151      13.952849      13.851799      13.852566      13.953623      13.854355      13.955420      13.954477      13.853415      13.751732      13.649394      13.650325      13.752667      13.753701      13.651357      13.652496      13.754841      13.856529      13.855391      13.956458      13.957597      14.058060      14.157907      14.156768      14.056921      14.055882      14.054935      14.154778      14.155727      14.254896      14.253943      14.352290      14.353247      14.354291      14.255939      14.257076      14.355428      14.452693      14.451555      14.547260      14.548399      14.641748      14.731425      14.730284      14.640609      14.639558      14.729230      14.728258      14.638591      14.545249      14.546212      14.450509      14.449550      14.448671      14.447869      14.543557      14.544366      14.637703      14.727365      14.726544      14.636889      14.636143      14.725793      14.725105      14.635463      14.542146      14.542819      14.447137      14.446471      14.349236      14.349895      14.251565      14.250914      14.151772      14.051955      14.052591      14.152416      14.153129      14.053296      14.054076      14.153913      14.253075      14.351417      14.350620      14.252283      14.249317      14.347615      14.347178      14.248888      14.149781      14.049999      14.050409      14.150201      14.150670      14.050870      14.051383      14.151193      14.250325      14.249794      14.348101      14.348639      14.445868      14.445320      14.540978      14.541534      14.634843      14.724478      14.723907      14.634280      14.633769      14.723388      14.722917      14.633307      14.540022      14.540476      14.444826      14.444380      14.443979      14.443621      14.539246      14.539613      14.632890      14.722491      14.722107      14.632513      14.632176      14.721762      14.721452      14.631873      14.538622      14.538916      14.443299      14.443012      14.345844      14.247588      14.247859      14.346122      14.346786      14.346435      14.248163      14.248505      14.149407      14.149074      14.049310      14.049634      14.049023      14.148778      14.148517      14.048769      13.948408      13.948653      13.847682      13.847446      13.745865      13.643631      13.643849      13.746092      13.746351      13.644100      13.644386      13.746648      13.848257      13.949246      13.948931      13.847951      13.849933      13.950959      13.950455      13.849437      13.848996      13.950004      13.949602      13.848603      13.644714      13.746985      13.747368      13.645087      13.645510      13.747800      13.748286      13.645987      13.439252      13.542990      13.542522      13.438794      13.438393      13.542110      13.541748      13.438040      13.228218      13.333545      13.333887      13.228550      13.228931      13.334279      13.334725      13.229367      13.332990      13.227684      13.227931      13.333247      13.437732      13.541430      13.541153      13.437465      13.437233      13.540912      13.540703      13.437034      13.332578      13.332767      13.227471      13.227290      13.227136      13.227006      13.332276      13.332415      13.436862      13.540523      13.540368      13.436716      13.436591      13.540236      13.540125      13.436486      13.332062      13.226807      13.226897      13.332160      13.226732      13.331981      13.331913      13.226670      13.226621      13.226581      13.331812      13.331858      13.436264      13.436213      13.539828      13.539884      13.539950      13.436325      13.436399      13.540030      13.642920      13.745116      13.745025      13.642835      13.642763      13.642703      13.744883      13.744947      13.846479      13.846410      13.947317      13.947392      13.947480      13.846562      13.846660      13.947584      13.846907      13.947845      13.947704      13.846774      13.745224      13.643022      13.643141      13.745350      13.745498      13.643280      13.643443      13.745667      13.847240      13.847062      13.948008      13.948195      14.048547      14.148286      14.148083      14.048351      14.048182      14.048035      14.147751      14.147905      14.246954      14.246792      14.345017      14.345186      14.345379      14.247139      14.247350      14.345597      14.442758      14.442533      14.538126      14.538360      14.631603      14.721174      14.720926      14.631363      14.631150      14.720707      14.720511      14.630961      14.537738      14.537920      14.442332      14.442157      14.442003      14.441870      14.537437      14.537578      14.630795      14.720340      14.720188      14.630650      14.630523      14.720057      14.719943      14.630413      14.537211      14.537316      14.441753      14.441653      14.344537      14.344631      14.246425      14.246335      14.147317      14.047624      14.047703      14.147401      14.147500      14.047797      14.047907      14.147616      14.246652      14.344871      14.344742      14.246530      14.246142      14.344333      14.344288      14.246100      14.147098      14.047420      14.047456      14.147137      14.147185      14.047502      14.047557      14.147245      14.246259      14.246195      14.344388      14.344456      14.441568      14.441496      14.537045      14.537122      14.630320      14.719845      14.719762      14.630239      14.630174      14.719693      14.719637      14.630120      14.536932      14.536983      14.441437      14.441389      14.441352      14.441324      14.536863      14.536892      14.630078      14.719592      14.719560      14.630047      14.630027      14.719539      14.719528      14.630016      14.536835      14.536844      14.441306      14.441298      14.344201      14.246020      14.246028      14.344210      14.344253      14.344227      14.246044      14.246068      14.147067      14.147045      14.047371      14.047391      14.047358      14.147030      14.147023      14.047351      13.947064      13.947070      13.846182      13.846176      13.744669      13.64