<VTKFile type="UnstructuredGrid" version="1.0" byte_order="LittleEndian" header_type="UInt64">
  <UnstructuredGrid>
    <Piece NumberOfPoints="40528" NumberOfCells="18337">
      <CellData Scalars="Scalars_">
        <DataArray type="Float32" Name="Scalars_" format="ascii">
     0.023304      0.023388      -0.035979      -0.036063      -0.147592      -0.301875      -0.301791      -0.147509      -0.147341      -0.301623      -0.301370      -0.147088      -0.035558      -0.035811      0.023556      0.023809      0.024149      0.024578      -0.034790      -0.035218      -0.146748      -0.301030      -0.300601      -0.146320      -0.145799      -0.300080      -0.299464      -0.145184      -0.033654      -0.034269      0.025099      0.025715      0.026429      0.027246      -0.032123      -0.032940      -0.144470      -0.298749      -0.297931      -0.143653      -0.142728      -0.297004      -0.295964      -0.141689      -0.030160      -0.031198      0.028171      0.029209      0.030367      0.031649      -0.027720      -0.029003      -0.140531      -0.294803      -0.293516      -0.139247      -0.137831      -0.292096      -0.290534      -0.136273      -0.024750      -0.026305      0.033064      0.034619      0.036321      0.038180      -0.021186      -0.023046      -0.134567      -0.288823      -0.286952      -0.132704      -0.130674      -0.284914      -0.282698      -0.128468      -0.016959      -0.019161      0.040205      0.042404      0.044788      0.047368      -0.011989      -0.014573      -0.126075      -0.280294      -0.277690      -0.123484      -0.120685      -0.274875      -0.271837      -0.117665      -0.006189      -0.009199      0.050155      0.053161      0.056397      0.059876      0.000538      -0.002948      -0.114411      -0.268562      -0.265039      -0.110911      -0.107152      -0.261253      -0.257189      -0.103119      0.008294      0.004281      0.063611      0.067617      0.071906      0.076493      0.017192      0.012593      -0.098799      -0.252834      -0.248171      -0.094175      -0.089234      -0.243185      -0.237860      -0.083958      0.027350      0.022106      0.081394      0.086623      -0.036256      -0.189619      -0.180937      -0.027686      0.083196      0.142264      0.133804      0.074700      0.066674      0.125811      0.118264      0.059098      -0.051986      -0.044350      -0.197814      -0.205543      -0.212826      -0.059184      -0.065963      -0.219680      -0.226125      -0.232179      -0.078333      -0.072340      0.038893      0.032940      0.092197      0.098131      0.104442      0.045225      0.051955      0.111147      -0.162031      -0.171748      -0.018620      -0.009038      0.101673      0.092180      0.151208      0.160657      0.181146      0.170629      0.111694      0.122263      0.011758      0.001081      -0.151765      -0.140928      -0.117449      -0.129497      0.023015      0.034872      0.145131      0.133402      0.192226      0.203892      0.229064      0.216164      0.157473      0.170449      0.060481      0.047353      -0.104761      -0.091409      0.172518      0.022811      0.042423      0.191711      0.299902      0.357624      0.338865      0.280997      0.262921      0.320923      0.303774      0.245648      0.136657      0.154176      0.004081      -0.013798      -0.030855      0.119934      0.103980      -0.047117      -0.062613      -0.077368      0.074279      0.088770      0.198394      0.184081      0.242614      0.256837      0.271756      0.213410      0.229153      0.287393      0.084416      0.062948      0.211783      0.232764      0.340310      0.319664      0.377229      0.397705      0.441382      0.419080      0.361868      0.384369      0.277575      0.254684      0.106862      0.130319      0.180407      0.154822      0.301467      0.326395      0.432313      0.407840      0.464639      0.488880      0.540434      0.514135      0.457818      0.484388      0.379489      0.352390      0.207112      0.234975      -2.844679      -3.177319      -3.143411      -2.811189      -2.485615      -2.168066      -2.200546      -2.518693      -2.550246      -2.231450      -2.260859      -2.580339      -2.907454      -2.876755      -3.209950      -3.241302      -3.581047      -3.548825      -3.892649      -3.926110      -4.276359      -4.632149      -4.594949      -4.241235      -4.204811      -4.556286      -4.516207      -4.167135      -3.822132      -3.857974      -3.515393      -3.480788      -3.445063      -3.408291      -3.747239      -3.785191      -4.128274      -4.474791      -4.432151      -4.088312      -4.047339      -4.388455      -4.343945      -4.005451      -3.668778      -3.708388      -3.370580      -3.332075      -2.995271      -2.662204      -2.701809      -3.034136      -3.071800      -3.108233      -2.776246      -2.739803      -2.414567      -2.450936      -2.133919      -2.097998      -2.060180      -2.376402      -2.336312      -2.020322      -1.715437      -1.421815      -1.459294      -1.754339      -1.791248      -1.826291      -1.528761      -1.494910      -1.209498      -1.242003      -0.966989      -0.935860      -0.903201      -1.175350      -1.139479      -0.868945      -0.611468      -0.644186      -0.400368      -0.369079      -0.144596      0.058313      0.029477      -0.174583      -0.203263      0.001868      -0.024556      -0.230685      -0.458817      -0.705213      -0.675414      -0.430262      -0.512112      -0.760747      -0.733638      -0.486083      -0.256897      -0.049839      -0.074021      -0.281942      -0.305865      -0.097140      -0.119234      -0.328707      -0.560644      -0.536950      -0.786590      -0.811220      -1.077449      -1.357041      -1.330391      -1.051823      -0.996651      -1.024909      -1.302379      -1.272939      -1.560941      -1.591535      -1.891217      -1.859580      -1.921291      -1.620623      -1.648279      -1.949883      -1.977065      -1.674571      -1.699562      -2.002906      -2.027466      -2.050801      -1.745874      -1.723311      -1.429406      -1.451181      -1.168127      -1.147133      -1.125053      -1.406492      -1.382389      -1.101842      -0.834685      -0.857031      -0.604772      -0.583237      -0.350508      -0.140340      -0.160491      -0.371305      -0.391137      -0.179722      -0.198066      -0.410037      -0.644828      -0.898547      -0.878304      -0.625289      -0.681117      -0.936100      -0.917799      -0.663425      -0.428042      -0.215553      -0.232214      -0.445184      -0.461494      -0.248079      -0.263176      -0.477003      -0.713923      -0.697939      -0.953489      -0.970000      -1.242115      -1.527826      -1.510146      -1.225035      -1.188081      -1.207036      -1.491506      -1.471866      -1.767301      -1.787640      -2.094005      -2.072964      -2.113969      -1.806939      -1.825239      -2.132902      -2.449710      -2.774826      -2.754594      -2.430136      -2.387764      -2.409501      -2.733279      -2.710842      -3.041513      -3.064674      -3.403182      -3.379233      -3.425976      -3.086699      -3.107622      -3.447646      -3.794607      -3.772109      -4.124953      -4.148383      -4.509021      -4.876736      -4.851137      -4.484552      -4.458807      -4.824178      -4.795821      -4.431759      -4.074445      -4.100315      -3.748451      -3.723611      -3.697564      -3.670294      -4.018932      -4.047322      -4.403384      -4.766036      -4.734794      -4.373663      -4.342586      -4.702074      -4.667860      -4.310149      -3.958322      -3.989265      -3.641787      -3.612038      -3.271380      -3.300196      -2.964863      -2.936812      -2.609034      -2.288844      -2.315471      -2.636384      -2.662437      -2.340797      -2.364878      -2.687242      -3.017179      -3.354102      -3.327764      -2.991641      -3.211980      -3.555851      -3.540243      -3.196933      -2.861082      -2.533077      -2.547111      -2.875607      -2.889306      -2.560347      -2.572819      -2.902213      -3.239540      -3.226171      -3.570568      -3.584431      -3.936677      -3.922285      -4.281250      -4.296208      -4.663065      -5.037387      -5.021198      -4.647506      -4.630970      -5.003983      -4.985700      -4.613418      -4.248502      -4.265360      -3.907002      -3.890793      -3.873621      -3.855450      -4.211727      -4.230636      -4.594809      -4.966305      -4.945754      -4.575103      -4.554261      -4.924003      -4.901011      -4.532246      -4.170635      -4.191739      -3.836246      -3.815977      -3.468221      -3.127478      -3.146302      -3.487735      -3.506221      -3.523712      -3.180994      -3.164129      -2.829413      -2.845696      -2.518212      -2.502479      -2.485843      -2.812199      -2.794015      -2.468266      -2.150845      -1.842583      -1.859009      -2.167838      -2.183919      -2.199127      -1.889262      -1.874557      -1.575499      -1.589722      -1.301979      -1.288213      -1.273669      -1.560466      -1.544587      -1.258315      -0.985669      -1.000530      -0.743508      -0.729103      -0.491743      -0.277533      -0.291178      -0.505740      -0.519025      -0.304135      -0.316431      -0.531623      -0.770118      -1.027953      -1.014614      -0.757170      -0.793983      -1.052516      -1.040577      -0.782380      -0.543561      -0.328091      -0.339139      -0.554865      -0.565561      -0.349598      -0.359492      -0.575672      -0.815318      -0.804953      -1.063797      -1.074448      -1.349896      -1.639172      -1.627863      -1.338929      -1.315000      -1.327307      -1.615872      -1.603169      -1.903159      -1.916283      -2.227065      -2.213498      -2.239863      -1.928666      -1.940340      -2.251925      -2.263283      -1.951337      -1.961685      -2.273968      -2.284010      -2.293439      -1.980554      -1.971415      -1.669299      -1.678168      -1.387762      -1.379143      -1.369976      -1.659862      -1.649828      -1.360236      -1.084496      -1.093967      -0.834329      -0.825102      -0.585223      -0.368844      -0.377674      -0.594236      -0.602734      -0.386005      -0.393857      -0.610739      -0.851209      -1.111276      -1.102885      -0.843024      -0.866141      -1.126568      -1.119162      -0.858908      -0.618273      -0.401252      -0.408208      -0.625356      -0.632008      -0.414746      -0.420883      -0.638251      -0.879298      -0.872931      -1.133515      -1.140026      -1.417252      -1.708472      -1.701623      -1.410581      -1.395859      -1.403457      -1.694305      -1.686495      -1.989130      -1.997170      -2.310569      -2.302282      -2.318326      -2.004699      -2.011742      -2.325578      -2.648875      -2.980828      -2.973109      -2.641397      -2.624845      -2.633396      -2.964848      -2.956014      -3.295232      -3.304367      -3.651596      -3.642139      -3.660433      -3.312908      -3.320883      -3.668682      -4.024026      -4.015487      -4.377998      -4.386844      -4.757168      -5.135110      -5.125605      -4.747999      -4.738163      -5.115404      -5.104469      -4.727624      -4.358353      -4.368512      -4.006334      -3.996537      -3.986060      -3.974871      -4.335875      -4.347486      -4.716346      -5.092761      -5.080241      -4.704289      -4.691417      -5.066866      -5.052596      -4.677689      -4.310273      -4.323483      -3.962935      -3.950215      -3.597474      -3.609733      -3.263948      -3.252121      -2.914361      -2.584560      -2.595603      -2.925783      -2.936512      -2.605977      -2.615715      -2.946579      -3.285471      -3.632032      -3.621241      -3.275054      -11.803747      -12.345341      -12.321517      -11.780374      -11.253872      -10.741018      -10.762963      -11.276578      -11.297792      -10.783505      -10.802707      -11.317594      -11.845858      -11.825545      -12.367530      -12.388188      -12.407410      -11.864772      -11.882369      -12.425283      -12.441892      -12.457314      -11.913918      -11.898726      -11.369243      -11.384108      -10.867388      -10.852911      -10.837347      -11.353248      -11.336055      -10.820633      -10.317865      -9.827149      -9.842854      -10.334072      -10.349176      -10.363235      -9.871133      -9.857497      -9.377378      -9.390599      -8.921189      -8.908367      -8.894599      -9.363181      -9.347957      -8.879831      -8.864015      -8.847094      -9.314217      -9.331653      -9.810329      -10.300499      -10.281915      -9.792339      -9.773127      -10.262056      -10.240869      -9.752640      -9.275737      -8.809730      -8.829017      -9.295595      -7.927330      -8.373035      -8.354290      -7.909121      -7.473908      -7.048315      -7.065423      -7.491572      -7.508107      -7.081436      -7.096407      -7.523567      -7.960323      -7.944378      -8.390595      -8.407023      -8.422374      -7.975217      -7.989114      -8.436702      -8.450057      -8.462492      -8.014121      -8.002066      -7.564027      -7.575708      -7.146894      -7.135583      -7.123431      -7.551476      -7.538006      -7.110389      -6.692019      -6.282557      -6.294744      -6.704633      -6.716388      -6.727329      -6.316676      -6.306103      -5.904406      -5.914616      -5.520850      -5.510996      -5.500418      -5.893440      -5.881677      -5.489074      -5.476923      -5.463923      -5.855585      -5.869073      -6.269495      -6.678497      -6.664019      -6.255512      -6.240559      -6.648534      -6.631991      -6.224587      -5.825765      -5.435201      -5.450030      -5.841164      -6.079893      -6.482039      -6.455072      -6.053876      -5.661401      -5.277258      -5.301266      -5.686428      -5.710069      -5.323959      -5.345386      -5.732378      -6.127641      -6.531533      -6.507507      -6.104462      -6.170047      -6.575483      -6.554173      -6.149484      -5.753408      -5.365594      -5.384633      -5.773211      -5.791838      -5.402548      -5.419389      -5.809339      -6.207545      -6.614337      -6.595520      -6.189383      -8.313015      -8.334303      -7.889695      -7.868994      -7.434967      -7.455059      -7.030058      -7.010595      -6.967829      -6.989872      -7.413573      -7.390819      -7.823526      -7.846958      -8.290370      -8.266307      -8.213682      -8.240766      -7.798635      -7.772220      -7.340984      -7.366643      -6.944410      -6.919557      -6.865320      -6.893212      -7.313781      -7.284970      -7.714540      -7.744212      -8.184990      -8.154614      -9.569827      -10.051401      -10.018113      -9.537736      -9.066762      -8.605474      -8.636357      -9.098113      -9.127913      -8.665605      -8.693272      -9.156179      -9.629447      -10.113244      -10.083115      -9.600398      -9.683042      -10.168806      -10.141801      -9.656987      -9.182943      -8.719410      -8.744072      -9.208240      -9.232107      -8.767311      -8.789179      -9.254591      -9.730827      -10.218297      -10.194291      -9.707643      -12.268513      -12.295948      -11.755329      -11.728516      -11.203682      -11.229599      -10.717607      -10.692669      -10.637993      -10.666148      -11.176044      -11.146611      -11.669154      -11.699826      -12.239076      -12.207489      -12.137192      -12.173590      -11.636387      -11.601411      -11.082088      -11.115314      -10.608159      -10.576612      -10.508307      -10.543330      -11.046885      -11.009667      -11.524394      -11.564115      -12.098092      -12.056064      -11.177423      -11.661096      -11.590569      -11.120694      -10.647468      -10.170359      -10.217819      -10.697048      -10.746140      -10.263734      -10.308256      -10.794224      -11.287704      -11.233339      -11.729003      -11.793312      -11.853623      -11.340010      -11.389946      -11.909881      -11.962217      -12.010859      -11.482159      -11.437347      -10.929168      -10.970423      -10.471555      -10.433108      -10.393023      -10.885962      -10.840921      -10.351377      -9.870127      -9.394784      -9.432594      -9.909184      -9.946939      -9.983275      -9.504140      -9.469073      -8.999368      -9.033846      -8.572902      -8.538577      -8.502427      -8.963346      -8.925828      -8.464363      -8.424266      -8.381964      -8.846705      -8.886897      -9.355749      -9.829931      -9.788830      -9.315618      -9.274520      -9.747161      -9.705448      -9.232538      -8.763828      -8.289552      -8.337198      -8.805523      -7.452998      -7.885614      -7.836699      -7.406686      -6.990576      -6.581604      -6.623036      -7.033774      -7.075200      -6.662835      -6.700918      -7.114772      -7.538335      -7.496842      -7.931282      -7.974128      -8.014465      -7.577600      -7.614751      -8.052526      -8.088484      -8.122478      -7.683128      -7.649895      -7.222282      -7.254491      -6.835824      -6.804676      -6.771829      -7.188290      -7.152464      -6.737250      -6.331121      -5.934177      -5.966567      -6.364629      -6.396422      -6.426552      -6.026355      -5.997272      -5.606975      -5.634935      -5.251888      -5.225107      -5.196869      -5.577464      -5.546345      -5.167127      -5.135834      -5.102948      -5.479036      -5.513556      -5.900035      -6.295846      -6.258749      -5.864067      -5.826186      -6.219772      -6.178841      -5.786289      -5.404522      -5.032231      -5.068427      -5.442716      -5.434269      -5.805171      -5.718039      -5.371483      -5.024210      -4.681372      -4.730868      -5.078893      -5.131830      -4.778899      -4.825369      -5.182722      -5.550406      -5.936975      -5.875905      -5.494107      -5.652978      -6.042852      -5.991982      -5.603262      -5.231422      -4.870193      -4.913311      -5.277903      -5.322197      -4.954691      -4.994327      -5.364377      -5.744243      -6.135849      -6.090621      -5.699880      -7.726572      -7.783948      -7.357808      -7.306317      -6.899673      -6.945776      -6.538695      -6.494575      -6.404704      -6.449677      -6.852754      -6.805761      -7.195980      -7.252282      -7.663529      -7.593549      -7.428031      -7.515302      -7.138062      -7.079772      -6.716228      -6.759766      -6.360795      -6.319851      -6.262434      -6.285132      -6.676955      -6.643856      -6.973449      -7.023220      -7.319595      -7.170201      -8.869363      -9.180552      -9.149546      -8.290512      -7.898708      -8.325494      -8.344281      -7.920377      -7.951655      -8.972983      -9.203299      -8.902723      -9.097660      -9.592717      -9.570347      -9.043251      -8.626043      -8.044935      -8.119191      -8.649030      -8.683195      -8.182275      -8.238320      -8.722505      -9.189589      -9.664553      -9.626012      -9.145147      -11.450390      -11.519293      -11.064116      -11.008785      -10.550135      -10.598134      -10.120840      -10.068018      -9.938692      -10.009179      -10.505248      -10.466692      -10.904827      -10.955641      -11.388421      -11.338820      -11.308573      -10.854514      -10.798510      -10.440823      -9.845134      -9.666223      -9.408075      -9.553109      -10.147094      -10.772750      -10.742826      -10.986805      -7.659251      -7.227783      -7.232126      -7.663735      -8.104991      -8.556258      -8.551481      -8.100362      -8.095311      -8.546268      -8.540588      -8.089808      -7.649027      -7.654357      -7.223044      -7.217882      -6.796022      -6.801020      -6.387951      -6.383113      -5.978841      -5.582918      -5.587451      -5.983524      -5.987825      -5.591615      -5.595434      -5.991768      -6.396466      -6.392393      -6.805608      -6.809814      -6.813663      -6.817178      -6.403599      -6.400193      -5.995378      -5.598931      -5.602128      -5.998678      -6.001687      -5.605044      -5.607699      -6.004426      -6.409530      -6.406704      -6.820384      -6.823301      -7.246049      -7.678109      -7.675001      -7.243039      -7.236100      -7.239729      -7.671585      -7.667838      -8.109226      -8.113094      -8.564620      -8.560629      -8.568259      -8.116621      -8.119828      -8.571569      -9.033704      -9.506609      -9.503090      -9.030289      -9.022418      -9.026536      -9.499221      -9.494976      -9.978690      -9.983061      -10.478443      -10.473948      -10.482539      -9.987045      -9.990669      -10.486265      -10.993778      -10.989955      -11.509667      -11.513581      -12.046034      -12.591479      -12.587417      -12.042039      -12.037648      -12.582952      -12.578054      -12.032832      -11.500645      -10.981140      -10.985751      -11.505364      -11.489826      -10.970570      -10.976090      -11.495476      -12.027559      -12.572695      -12.566836      -12.021795      -12.015505      -12.560445      -12.553479      -12.008648      -11.476937      -11.483659      -10.964543      -10.957976      -10.451379      -9.956743      -9.962964      -10.457777      -10.463648      -10.469028      -9.973905      -9.968673      -9.485250      -9.490329      -9.017910      -9.012982      -9.007605      -9.479706      -9.473665      -9.001746      -8.995372      -9.467094      -9.459954      -8.988447      -8.972794      -8.980934      -9.452208      -9.443813      -9.925988      -9.934638      -10.428638      -10.419736      -10.436850      -9.942618      -9.949974      -10.444416      -10.950830      -10.943061      -11.461668      -11.469621      -12.001186      -12.545900      -12.537663      -11.993074      -11.984268      -12.528721      -12.519026      -11.974718      -11.443671      -10.925487      -10.934628      -11.453034      -11.422561      -10.904881      -10.915586      -11.433531      -11.964373      -12.508524      -12.497162      -11.953178      -11.941078      -12.484881      -12.471620      -11.928013      -11.397907      -11.410706      -10.893315      -10.880836      -10.376302      -9.883812      -9.895588      -10.388434      -10.399683      -10.410101      -9.916628      -9.906510      -9.424913      -9.434731      -8.963984      -8.954465      -8.944189      -9.414318      -9.402896      -8.933113      -8.474054      -8.484794      -8.035739      -8.025331      -7.586568      -7.157408      -7.167171      -7.596653      -7.606005      -7.176226      -7.184614      -7.614668      -8.054338      -8.503983      -8.494755      -8.045393      -8.512523      -8.062612      -8.070259      -8.520414      -8.527697      -8.534410      -8.083820      -8.077316      -7.636927      -7.643228      -7.212266      -7.206165      -7.199546      -7.630091      -7.622684      -7.192375      -6.771333      -6.359224      -6.365938      -6.778274      -6.784680      -6.790585      -6.377851      -6.372136      -5.968220      -5.973749      -5.577991      -5.572641      -5.566843      -5.962224      -5.955731      -5.560565      -5.941121      -5.546445      -5.553777      -5.948708      -6.351960      -6.763823      -6.755706      -6.344110      -6.335639      -6.746946      -6.737500      -6.326508      -5.924113      -5.932935      -5.538538      -5.530018      -5.143958      -5.152183      -4.773646      -4.765706      -4.395085      -4.031984      -4.039392      -4.402753      -4.409879      -4.046280      -4.052676      -4.416493      -4.787866      -5.166903      -5.159820      -4.781023      -5.173464      -4.794208      -4.800076      -5.179533      -5.185142      -5.190317      -4.810509      -4.805501      -4.433552      -4.438400      -4.073883      -4.069187      -4.064103      -4.428302      -4.422625      -4.058608      -3.702130      -3.353262      -3.358423      -3.707452      -3.712379      -3.716932      -3.367620      -3.363201      -3.021852      -3.026145      -2.692865      -2.688690      -2.684179      -3.017213      -3.012205      -2.679314      -3.000994      -2.668429      -2.674071      -3.006806      -3.347697      -3.696387      -3.690197      -3.341702      -3.335253      -3.683535      -3.676373      -3.328322      -2.988030      -2.994744      -2.662365      -2.655855      -2.332353      -2.018324      -2.024468      -2.338673      -2.344563      -2.350046      -2.035533      -2.030197      -1.726439      -1.731640      -1.439850      -1.434772      -1.429327      -1.720858      -1.714877      -1.423494      -1.146120      -1.151819      -0.890842      -0.885262      -0.644102      -0.426639      -0.432032      -0.649580      -0.654703      -0.437078      -0.441795      -0.659489      -0.900928      -0.896058      -1.157143      -1.162110      -1.166739      -1.171048      -0.909699      -0.905469      -0.663955      -0.446199      -0.450306      -0.668117      -0.671991      -0.454130      -0.457688      -0.675592      -0.917289      -0.913634      -1.175054      -1.178773      -1.456858      -1.453066      -1.745160      -1.749035      -2.053355      -2.368335      -2.364268      -2.049389      -2.045109      -2.359878      -2.355144      -2.040497      -1.736480      -1.444579      -1.448978      -1.740981      -1.759007      -1.466629      -1.469401      -1.761832      -2.066436      -2.381727      -2.378776      -2.063550      -2.060419      -2.375571      -2.372096      -2.057026      -1.752623      -1.755942      -1.463625      -1.460373      -1.182222      -1.185415      -0.923822      -0.920680      -0.678936      -0.460992      -0.464056      -0.682035      -0.684903      -0.466894      -0.469518      -0.687554      -0.929413      -0.926728      -1.188367      -1.191091      -1.193602      -1.195911      -0.934165      -0.931887      -0.689999      -0.471940      -0.474170      -0.692250      -0.694319      -0.476221      -0.478102      -0.696215      -0.938173      -0.936256      -1.198030      -1.199971      -1.478421      -1.771014      -1.769010      -1.476452      -1.471953      -1.474299      -1.766820      -1.764432      -2.069089      -2.071526      -2.386929      -2.384440      -2.389209      -2.073758      -2.075799      -2.391292      -2.716385      -2.714255      -3.048094      -3.050274      -3.392407      -3.742425      -3.740130      -3.390171      -3.387721      -3.737613      -3.734860      -3.385041      -3.043094      -2.709375      -2.711923      -3.045705      -3.030112      -2.696725      -2.700289      -3.033772      -3.037143      -2.703574      -2.706597      -3.040245      -3.731853      -3.382116      -3.378930      -3.728576      -3.725010      -3.375464      -3.371701      -3.721135      -4.442872      -4.078217      -4.082210      -4.446990      -4.450777      -4.085883      -4.089257      -4.454253      -5.207206      -4.826868      -4.823283      -5.203506      -5.199474      -4.819376      -4.815126      -5.195086      -4.833159      -5.213694      -5.210595      -4.830153      -4.457440      -4.092351      -4.095183      -4.460357      -4.463020      -4.097771      -4.100130      -4.465447      -4.838401      -4.835902      -5.216521      -5.219097      -5.221436      -5.223556      -4.842731      -4.840672      -4.467653      -4.102275      -4.104221      -4.469654      -4.471461      -4.105980      -4.107564      -4.473089      -4.846264      -5.227193      -5.225471      -4.844590      -5.228737      -4.847765      -4.849102      -5.230114      -5.231333      -5.232404      -4.851329      -4.850288      -4.477004      -4.478018      -4.112365      -4.111377      -4.110253      -4.475850      -4.474549      -4.108985      -3.751051      -3.400819      -3.402026      -3.752287      -3.753383      -3.754347      -3.404038      -3.403096      -3.060716      -3.061637      -2.727502      -2.726599      -2.725574      -3.059669      -3.058489      -2.724418      -3.055695      -2.721684      -2.723125      -3.057167      -3.399467      -3.749665      -3.748122      -3.397960      -3.396289      -3.746408      -3.744514      -3.394442      -3.052260      -3.054063      -2.720088      -2.718325      -2.393191      -2.077661      -2.079354      -2.394917      -2.396481      -2.397893      -2.082274      -2.080888      -1.776013      -1.777377      -1.484686      -1.483343      -1.481857      -1.774505      -1.772842      -1.480220      -1.201744      -1.203359      -0.941520      -0.939924      -0.697949      -0.479823      -0.481393      -0.699530      -0.700967      -0.482820      -0.484112      -0.702268      -0.944282      -0.942970      -1.204825      -1.206151      -1.207345      -1.208413      -0.946522      -0.945464      -0.703440      -0.485277      -0.486322      -0.704490      -0.705425      -0.487251      -0.488072      -0.706250      -0.948295      -0.947464      -1.209364      -1.210202      -1.488785      -1.487937      -1.780673      -1.781532      -2.086495      -2.402188      -2.401301      -2.085623      -2.084634      -2.400295      -2.399161      -2.083520      -1.778602      -1.485894      -1.486976      -1.779699      -1.783469      -1.490698      -1.491140      -1.783916      -2.088913      -2.404645      -2.404184      -2.088459      -2.087908      -2.403624      -2.402960      -2.087255      -1.782281      -1.782925      -1.490161      -1.489525      -1.210934      -1.211564      -0.949644      -0.949020      -0.706970      -0.488789      -0.489407      -0.707591      -0.708116      -0.489930      -0.490360      -0.708547      -0.950607      -0.950172      -1.212096      -1.212534      -1.212880      -1.213138      -0.951207      -0.950951      -0.708890      -0.490701      -0.490954      -0.709144      -0.709313      -0.491122      -0.491206      -0.709397      -0.951461      -0.951376      -1.213309      -1.213394      -1.492009      -1.784795      -1.784708      -1.491923      -1.491490      -1.491750      -1.784533      -1.784270      -2.089272      -2.089538      -2.405280      -2.405009      -2.405459      -2.089715      -2.089803      -2.405549      -2.7