<VTKFile type="UnstructuredGrid" version="1.0" byte_order="LittleEndian" header_type="UInt64">
  <UnstructuredGrid>
    <Piece NumberOfPoints="40528" NumberOfCells="18337">
      <CellData Scalars="Scalars_">
        <DataArray type="Float32" Name="Scalars_" format="ascii">
     23.221334      23.221281      23.239599      23.239653      23.288658      23.367329      23.367279      23.288607      23.288504      23.367182      23.367035      23.288349      23.239330      23.239492      23.221172      23.221008      23.220787      23.220507      23.238838      23.239113      23.288139      23.366837      23.366587      23.287874      23.287552      23.366282      23.365919      23.287170      23.238108      23.238504      23.220167      23.219763      23.219294      23.218756      23.237116      23.237646      23.286724      23.365499      23.365015      23.286215      23.285633      23.364466      23.363848      23.284979      23.235836      23.236515      23.218143      23.217453      23.216682      23.215822      23.234232      23.235077      23.284246      23.363153      23.362383      23.283432      23.282528      23.361528      23.360586      23.281532      23.232258      23.233294      23.214870      23.213820      23.212662      23.211390      23.229866      23.231117      23.280434      23.359549      23.358410      23.279230      23.277910      23.357164      23.355801      23.276468      23.226997      23.228497      23.209995      23.208473      23.206812      23.205004      23.223585      23.225365      23.274895      23.354315      23.352699      23.273184      23.271324      23.350943      23.349035      23.269304      23.219555      23.221653      23.203037      23.200905      23.198593      23.196091      23.214821      23.217281      23.267118      23.346970      23.344736      23.264751      23.262196      23.342321      23.339718      23.259438      23.209295      23.212164      23.193386      23.190470      23.187325      23.183939      23.202879      23.206205      23.256464      23.336910      23.333891      23.253265      23.249826      23.330643      23.327154      23.246132      23.195461      23.199301      23.180300      23.176394      23.211933      23.294846      23.288919      23.205664      23.153387      23.133572      23.140203      23.159903      23.166027      23.146437      23.152287      23.171774      23.223351      23.217823      23.300411      23.305635      23.310532      23.228533      23.233387      23.315117      23.319407      23.323414      23.242172      23.237928      23.186930      23.191343      23.172201      23.167711      23.162907      23.182209      23.177162      23.157770      23.275917      23.282616      23.198997      23.191916      23.139099      23.146458      23.126520      23.119032      23.102663      23.111086      23.131290      23.123014      23.176434      23.184401      23.268808      23.261269      23.244827      23.253283      23.167995      23.159069      23.104980      23.114252      23.093746      23.084312      23.063814      23.074343      23.095182      23.084835      23.139664      23.149632      23.235888      23.226440      23.053268      23.144382      23.130112      23.038280      22.979750      22.956936      22.972710      22.995264      23.010054      22.987747      23.002073      23.024139      23.081142      23.067547      23.157969      23.170895      23.183184      23.094078      23.106375      23.194862      23.205950      23.216469      23.129147      23.118057      23.062414      23.073921      23.052710      23.041004      23.028679      23.050299      23.037546      23.015709      23.099415      23.115131      23.022560      23.006083      22.946444      22.963484      22.940401      22.923080      22.885977      22.904947      22.928598      22.909925      22.970739      22.988817      23.082935      23.065660      23.028605      23.047560      22.951820      22.932028      22.869980      22.890396      22.866138      22.845407      22.801142      22.823751      22.848646      22.826366      22.889694      22.911331      23.008755      22.987978      24.173822      24.215700      24.210821      24.167711      24.114716      24.051432      24.059933      24.122057      24.128952      24.067898      24.075373      24.135437      24.185070      24.179604      24.220373      24.224838      24.255322      24.251797      24.274466      24.277147      24.291010      24.297653      24.296371      24.289070      24.287170      24.295183      24.294127      24.285339      24.269054      24.271761      24.248165      24.244440      24.240648      24.236813      24.263779      24.266380      24.283613      24.293238      24.292562      24.282032      24.280642      24.292143      24.292027      24.279491      24.259003      24.261297      24.232973      24.229183      24.189352      24.139542      24.147188      24.194990      24.200459      24.205738      24.161249      24.154415      24.098532      24.106888      24.042345      24.032618      24.022182      24.089590      24.080002      24.010958      23.932014      23.842407      23.856052      23.944551      23.956242      23.967161      23.880819      23.868834      23.770012      23.783003      23.673891      23.659908      23.645096      23.756208      23.741531      23.629400      23.506960      23.523684      23.394190      23.376432      23.241770      23.109253      23.129061      23.260559      23.278435      23.147947      23.165953      23.295443      23.427032      23.554493      23.539511      23.411039      23.456625      23.582121      23.568682      23.442213      23.311623      23.183119      23.199476      23.327013      23.341654      23.215061      23.229904      23.355574      23.483292      23.470306      23.594849      23.606907      23.722506      23.827858      23.817617      23.711363      23.687098      23.699574      23.806757      23.795235      23.892067      23.902630      23.986944      23.977375      23.995916      23.912560      23.921898      24.004339      24.012255      23.930687      23.938961      24.019693      24.026691      24.033278      23.954096      23.946754      23.855219      23.863327      23.761295      23.752401      23.742992      23.846624      23.837515      23.733038      23.618326      23.629143      23.507307      23.495615      23.368807      23.244036      23.257483      23.381384      23.393328      23.270271      23.282429      23.404669      23.528912      23.649078      23.639383      23.518398      23.548315      23.666933      23.658255      23.538876      23.415430      23.293976      23.304939      23.425636      23.435310      23.315340      23.325201      23.444473      23.565708      23.557251      23.675142      23.682899      23.792210      23.891422      23.885002      23.785133      23.769697      23.777636      23.878195      23.870977      23.961012      23.967529      24.045309      24.039474      24.050802      23.973669      23.979452      24.055973      24.121136      24.175375      24.171364      24.116554      24.106520      24.111689      24.167103      24.162580      24.208246      24.212143      24.247478      24.244175      24.250608      24.215822      24.219294      24.253571      24.278921      24.276432      24.294016      24.296070      24.305729      24.308590      24.307291      24.304070      24.302345      24.305954      24.304586      24.300562      24.289623      24.291866      24.273815      24.271065      24.268181      24.265163      24.284864      24.287287      24.298721      24.303196      24.301792      24.296835      24.294910      24.300388      24.299002      24.292963      24.279785      24.282360      24.262011      24.258730      24.229099      24.233158      24.195129      24.190241      24.141537      24.082392      24.088987      24.147278      24.152687      24.095192      24.101028      24.157782      24.204119      24.240692      24.237020      24.199751      24.236311      24.268198      24.266100      24.233883      24.192171      24.140276      24.143444      24.194956      24.197573      24.146421      24.149214      24.200031      24.240740      24.238594      24.270174      24.272034      24.294636      24.293037      24.307909      24.309269      24.316643      24.317430      24.316481      24.315498      24.314295      24.315487      24.314451      24.313030      24.304956      24.306473      24.291344      24.289549      24.287651      24.285645      24.301670      24.303356      24.311701      24.313368      24.312241      24.310308      24.308849      24.311068      24.309851      24.307322      24.298029      24.299896      24.283524      24.281284      24.256371      24.222567      24.225655      24.259018      24.261517      24.263876      24.231302      24.228563      24.186060      24.189209      24.136904      24.133316      24.129501      24.182711      24.179153      24.125444      24.060841      23.984900      23.990026      24.065420      24.069727      24.073778      23.999395      23.994854      23.908545      23.913601      23.816721      23.811127      23.805187      23.903173      23.897472      23.798889      23.690228      23.697147      23.581261      23.573704      23.453148      23.334545      23.343388      23.461353      23.469107      23.351753      23.359659      23.476431      23.595135      23.709833      23.703676      23.588400      23.607473      23.721096      23.715633      23.601486      23.483343      23.367125      23.374168      23.489861      23.496000      23.380808      23.387060      23.501780      23.618410      23.613108      23.726236      23.731070      23.835987      23.930983      23.927034      23.831608      23.821989      23.826946      23.922831      23.918358      24.003664      24.007677      24.081165      24.077587      24.084526      24.011448      24.014986      24.087681      24.090639      24.018307      24.021421      24.093414      24.096014      24.098448      24.027071      24.024340      23.941422      23.944471      23.850965      23.847576      23.843960      23.938164      23.934689      23.840101      23.735609      23.739872      23.628075      23.623394      23.507215      23.392942      23.398472      23.512323      23.517117      23.403664      23.408533      23.521612      23.636581      23.747614      23.743868      23.632465      23.644045      23.754400      23.751120      23.640438      23.525824      23.413097      23.417370      23.529766      23.533451      23.421368      23.425100      23.536894      23.650566      23.647417      23.757465      23.760326      23.862461      23.954815      23.952488      23.859875      23.854137      23.857103      23.949995      23.947325      24.029629      24.032019      24.102858      24.100727      24.104849      24.034252      24.036337      24.106709      24.166086      24.214914      24.213453      24.164436      24.160778      24.162668      24.211891      24.210222      24.249666      24.251133      24.281086      24.279802      24.282290      24.252508      24.253796      24.283421      24.304506      24.303518      24.316914      24.317774      24.323917      24.323603      24.322956      24.323172      24.322382      24.322279      24.321564      24.321548      24.315033      24.316000      24.302467      24.301352      24.300163      24.298903      24.312922      24.314009      24.320669      24.320814      24.320028      24.319740      24.318762      24.319202      24.318336      24.317730      24.310556      24.311771      24.297564      24.296143      24.273785      24.275431      24.244652      24.242758      24.202339      24.151836      24.154295      24.204504      24.206535      24.156599      24.158756      24.208439      24.248100      24.278435      24.276979      24.246431      23.868790      23.822752      23.823032      23.869053      23.914064      23.957920      23.957695      23.913820      23.913647      23.957542      23.957449      23.913538      23.868481      23.868603      23.822552      23.822416      23.822336      23.868410      23.868387      23.822304      23.822311      23.822350      23.868450      23.868402      23.913492      23.913548      23.957508      23.957443      23.957407      23.913467      23.913481      23.957407      24.000032      24.041185      24.041222      24.000050      24.000099      24.000177      24.041384      24.041290      24.080822      24.080936      24.118618      24.118479      24.118359      24.080730      24.080667      24.118263      24.118198      24.118166      24.080647      24.080637      24.041185      24.000057      24.000130      24.041229      24.041327      24.000257      24.000452      24.041485      24.080818      24.118233      24.118176      24.080706      24.186407      24.153500      24.153494      24.186329      24.216438      24.243486      24.243736      24.216597      24.216780      24.243998      24.244272      24.216980      24.186653      24.186516      24.153545      24.153625      24.153734      24.186813      24.186991      24.153868      24.154020      24.154190      24.187386      24.187181      24.217663      24.217907      24.245420      24.245129      24.244839      24.217424      24.217196      24.244553      24.268513      24.288666      24.289093      24.268864      24.269215      24.269560      24.289917      24.289511      24.305567      24.306044      24.317451      24.316895      24.316315      24.305073      24.304562      24.315708      24.315075      24.314415      24.303486      24.304031      24.288229      24.268158      24.267803      24.287783      24.287331      24.267450      24.267101      24.286871      24.302340      24.313011      24.313726      24.302921      24.283638      24.265011      24.264818      24.283213      24.297203      24.306271      24.307205      24.297874      24.298544      24.308117      24.309002      24.299206      24.284538      24.265507      24.265244      24.284082      24.285469      24.266102      24.265795      24.285002      24.299860      24.309860      24.310690      24.300501      24.301128      24.311493      24.312265      24.301743      24.286406      24.266758      24.266424      24.285938      24.153627      24.153534      24.186287      24.186287      24.216206      24.216305      24.243254      24.243042      24.242695      24.242853      24.216141      24.216120      24.186443      24.186338      24.153782      24.154005      24.154696      24.154306      24.186613      24.186853      24.216232      24.216146      24.242571      24.242489      24.242479      24.242455      24.216383      24.216612      24.187597      24.187178      24.155184      24.155785      24.045321      24.004822      24.006088      24.046438      24.084965      24.121485      24.120708      24.084013      24.083214      24.120062      24.119532      24.082550      24.043594      24.002872      24.003757      24.044378      24.042435      24.001556      24.002146      24.042953      24.082010      24.119104      24.118773      24.081579      24.081244      24.118523      24.118347      24.080994      24.041714      24.000725      24.001089      24.042027      23.823877      23.823400      23.869406      23.869860      23.914827      23.914396      23.958225      23.958628      23.959785      23.959141      23.915377      23.916061      23.871155      23.870438      23.824478      23.825226      23.827259      23.826141      23.872040      23.873119      23.917938      23.916908      23.960579      23.961548      23.964109      23.962715      23.919186      23.920685      23.876007      23.874428      23.828615      23.830256      23.898960      23.855938      23.862566      23.904423      23.945839      23.986813      23.982605      23.941217      23.937012      23.978846      23.975498      23.933250      23.889772      23.894070      23.850136      23.845175      23.841000      23.886049      23.882868      23.837517      23.834629      23.832235      23.877903      23.880171      23.924582      23.922470      23.965759      23.967695      23.969946      23.927059      23.929939      23.972538      24.013603      24.053041      24.051033      24.011318      24.009315      24.007578      24.047750      24.049276      24.087385      24.086084      24.122408      24.123489      24.124754      24.088886      24.090603      24.126221      24.127920      24.129896      24.094755      24.092554      24.055319      24.016186      24.019066      24.057888      24.060780      24.022236      24.025658      24.064053      24.099943      24.134924      24.132202      24.097218      24.194984      24.164932      24.167450      24.197111      24.223631      24.246685      24.245583      24.221987      24.220629      24.244688      24.243980      24.219521      24.191767      24.193222      24.162846      24.161104      24.159645      24.190569      24.189585      24.158415      24.157379      24.156509      24.188126      24.188780      24.217361      24.216932      24.242577      24.242756      24.243036      24.217918      24.218628      24.243439      24.264637      24.281841      24.282116      24.264568      24.264585      24.264673      24.282812      24.282444      24.295872      24.296534      24.305317      24.304348      24.303366      24.295225      24.294600      24.302382      24.301403      24.300442      24.293467      24.294010      24.281630      24.264805      24.265089      24.281498      24.281460      24.265507      24.266077      24.281534      24.292587      24.298635      24.299511      24.292984      24.289240      24.277996      24.282902      24.292383      24.297520      24.297714      24.296812      24.295586      24.294144      24.296303      24.296135      24.293144      24.284981      24.272202      24.274628      24.286798      24.282759      24.268919      24.270365      24.283672      24.292524      24.296251      24.296604      24.292219      24.292164      24.297148      24.297836      24.292301      24.281750      24.266819      24.267756      24.282141      24.174210      24.170502      24.199661      24.202682      24.227896      24.225594      24.248013      24.249571      24.253326      24.251354      24.230547      24.233526      24.210266      24.206213      24.178694      24.184063      24.197792      24.190409      24.214811      24.219738      24.240183      24.236774      24.255415      24.257492      24.260618      24.259348      24.243589      24.246786      24.229433      24.224798      24.207132      24.220148      24.109184      24.096752      24.103918      24.161600      24.171179      24.155375      24.152157      24.168119      24.162960      24.094734      24.092394      24.104460      24.077673      24.036209      24.038578      24.084782      24.110886      24.153986      24.147308      24.108810      24.105942      24.142208      24.138191      24.102892      24.067806      24.029261      24.032885      24.072227      23.877510      23.869871      23.910400      23.916817      23.955988      23.950808      23.991535      23.996937      24.011604      24.003372      23.961134      23.965776      23.930891      23.923622      23.884880      23.891132      23.895115      23.938972      23.948709      23.969015      24.023211      24.043633      24.078520      24.059029      24.008541      23.957527      23.957445      23.945175      24.220510      24.248316      24.248529      24.220709      24.189928      24.156513      24.156336      24.189741      24.189547      24.156151      24.155962      24.189344      24.220087      24.220303      24.248093      24.247860      24.272301      24.272554      24.293283      24.293009      24.309538      24.321407      24.321739      24.309839      24.310125      24.322054      24.322350      24.310396      24.293793      24.293545      24.272795      24.273024      24.273239      24.273443      24.294247      24.294025      24.310650      24.322626      24.322886      24.310888      24.311110      24.323128      24.323353      24.311317      24.294645      24.294453      24.273636      24.273817      24.249271      24.221409      24.221249      24.249102      24.248730      24.248922      24.221079      24.220900      24.190107      24.190279      24.156847      24.156683      24.157001      24.190441      24.190594      24.157148      24.121367      24.083509      24.083374      24.121225      24.120920      24.121077      24.083229      24.083078      24.043396      24.043543      24.002226      24.002083      24.002361      24.043682      24.043816      24.002489      23.959719      23.959595      23.915550      23.915670      23.870491      23.824308      23.824194      23.870373      23.870249      23.824074      23.823948      23.870119      23.915287      23.959326      23.959463      23.915422      23.915005      23.959034      23.959183      23.915150      23.869984      23.823816      23.823681      23.869844      23.869701      23.823544      23.823402      23.869556      23.914709      23.914858      23.958883      23.958729      24.001469      24.042761      24.042927      24.001627      24.001783      24.001936      24.043245      24.043087      24.082758      24.082922      24.120756      24.120586      24.120411      24.082592      24.082418      24.120232      24.120047      24.082245      24.082067      24.119860      24.119484      24.119673      24.081890      24.081715      24.042091      24.042257      24.000984      24.000828      24.001144      24.042425      24.042593      24.001307      23.958572      23.958416      23.914406      23.914557      23.869410      23.823261      23.823120      23.869265      23.869122      23.822983      23.822849      23.868982      23.914114      23.958111      23.958261      23.914257      23.913845      23.957830      23.957968      23.913975      23.868849      23.822721      23.822605      23.868727      23.868616      23.822502      23.822414      23.868523      23.913628      23.913729      23.957706      23.957598      24.000278      24.041498      24.041630      24.000397      24.000530      24.000675      24.041929      24.041775      24.081375      24.081541      24.119297      24.119116      24.118938      24.081215      24.081068      24.118773      24.154371      24.154562      24.187817      24.187597      24.218155      24.245710      24.246000      24.218405      24.218657      24.246284      24.246565      24.218906      24.188261      24.154959      24.154758      24.188038      24.155163      24.188484      24.188705      24.155365      24.155567      24.155767      24.189137      24.188923      24.219633      24.219864      24.247618      24.247368      24.247107      24.219395      24.219152      24.246840      24.271179      24.291767      24.292097      24.271475      24.271763      24.272038      24.292719      24.292416      24.308884      24.309219      24.321053      24.320681      24.320286      24.308531      24.308159      24.319870      24.307367      24.318972      24.319431      24.307772      24.291422      24.270872      24.270555      24.291065      24.290695      24.270231      24.269899      24.290312      24.306503      24.306944      24.318489      24.317982      24.324215      24.324797      24.325291      24.324623      24.318583      24.305433      24.306305      24.319345      24.320065      24.307121      24.307888      24.320740      24.326513      24.325871      24.325348      24.325920      24.326366      24.327074      24.327600      24.326834      24.327276      24.327692      24.328564      24.328098      24.322527      24.323050      24.310493      24.309906      24.309278      24.321968      24.321373      24.308605      24.288078      24.259079      24.259933      24.288837      24.289545      24.290205      24.261469      24.260729      24.222744      24.223576      24.175838      24.174908      24.173903      24.221849      24.220888      24.172821      24.218744      24.170408      24.171658      24.219854      24.258162      24.287268      24.286398      24.257179      24.256126      24.285471      24.284479      24.254999      24.216280      24.217554      24.169067      24.167629      24.108444      24.038280      24.040092      24.110062      24.111568      24.112970      24.043350      24.041780      23.960892      23.962643      23.871161      23.869215      23.867123      23.959009      23.956985      23.864874      23.762997      23.765484      23.656240      23.653502      23.540104      23.428585      23.431831      23.543098      23.545885      23.434856      23.437670      23.548477      23.661158      23.658789      23.767797      23.769951      23.771952      23.773808      23.665401      23.663359      23.550886      23.440283      23.442709      23.553120      23.555191      23.444956      23.447035      23.557108      23.669046      23.667294      23.775526      23.777119      23.877642      23.876202      23.967180      23.968477      24.048588      24.117657      24.116613      24.047422      24.046165      24.115488      24.114275      24.044811      23.964270      23.872969      23.874645      23.965780      23.971809      23.881336      23.882381      23.972752      24.052429      24.121103      24.120342      24.051582      24.050661      24.119516      24.118622      24.049665      23.969679      23.970787      23.880201      23.878973      23.778591      23.779949      23.672161      23.670666      23.558880      23.448959      23.450733      23.560514      23.562023      23.452370      23.453876      23.563410      23.674809      23.673540      23.781202      23.782356      23.783419      23.784391      23.677046      23.675976      23.564686      23.455259      23.456528      23.565855      23.566927      23.457689      23.458752      23.567904      23.678921      23.678026      23.785282      23.786098      23.885771      23.975813      23.975145      23.885031      23.883341      23.884224      23.974415      23.973619      24.053211      24.053928      24.122450      24.121805      24.123043      24.054586      24.055189      24.123585      24.181158      24.180670      24.227905      24.228344      24.265745      24.294039      24.293680      24.265348      24.264915      24.293291      24.292870      24.264448      24.226904      24.179556      24.180138      24.227425      24.224348      24.176702      24.177504      24.225063      24.225725      24.178244      24.178926      24.226339      24.292414      24.263941      24.263391      24.291920      24.291389      24.262798      24.262159      24.290819      24.323540      24.311041      24.311552      24.323996      24.324423      24.312027      24.312469      24.324821      24.329126      24.330154      24.329796      24.328800      24.328455      24.329412      24.329002      24.328085      24.330801      24.329714      24.329430      24.330490      24.325191      24.312880      24.313261      24.325535      24.325853      24.313612      24.313936      24.326147      24.331360      24.331091      24.329977      24.330223      24.330450      24.330660      24.331835      24.331608      24.326420      24.314236      24.314510      24.326670      24.326899      24.314760      24.314989      24.327106      24.332237      24.331028      24.330853      24.332045      24.331188      24.332411      24.332567      24.331333      24.331463      24.331579      24.332832      24.332708      24.327621      24.327757      24.315699      24.315550      24.315382      24.327467      24.327297      24.315197      24.295424      24.267271      24.267494      24.295628      24.295811      24.295973      24.267872      24.267694      24.230495      24.230690      24.183748      24.183535      24.183292      24.230276      24.230030      24.183020      24.229450      24.182383      24.182718      24.229755      24.267021      24.295197      24.294945      24.266745      24.266441      24.294670      24.294367      24.266108      24.228746      24.229115      24.182013      24.181604      24.124081      24.055738      24.056238      24.124533      24.124941      24.125313      24.057102      24.056692      23.977478      23.977932      23.888113      23.887611      23.887056      23.976976      23.976421      23.886444      23.786840      23.787518      23.680479      23.679737      23.568796      23.459719      23.460596      23.569607      23.570343      23.461393      23.462112      23.571005      23.681759      23.681152      23.788130      23.788681      23.789177      23.789621      23.682791      23.682304      23.571602      23.462759      23.463335      23.572134      23.572605      23.463848      23.464298      23.573021      23.683603      23.683224      23.790014      23.790361      23.889637      23.889322      23.979027      23.979313      24.058353      24.126448      24.126213      24.058094      24.057800      24.125946      24.125647      24.057470      23.978338      23.888563      23.888966      23.978703      23.979956      23.890345      23.890507      23.980104      24.059074      24.127104      24.126982      24.058939      24.058775      24.126831      24.126654      24.058580      23.979561      23.979774      23.890146      23.889910      23.790663      23.790920      23.684219      23.683935      23.573383      23.464691      23.465027      23.573694      23.573956      23.465311      23.465546      23.574171      23.684656      23.684458      23.791140      23.791319      23.791460      23.791565      23.684927      23.684811      23.574341      23.465729      23.465866      23.574467      23.574551      23.465958      23.466002      23.574593      23.685041      23.685003      23.791636      23.791670      23.890829      23.980398      23.980370      23.890797      23.890636      23.890732      23.980310      23.980223      24.059183      24.059263      24.127275      24.127203      24.127323      24.059315      24.059341      24.127348      24.184568      24.184546      24.231419      24.231438      24.268555      24.29