<VTKFile type="UnstructuredGrid" version="1.0" byte_order="LittleEndian" header_type="UInt64">
  <UnstructuredGrid>
    <Piece NumberOfPoints="40528" NumberOfCells="18337">
      <CellData Scalars="Scalars_">
        <DataArray type="Float32" Name="Scalars_" format="ascii">
     22.211927      22.211931      22.183323      22.183317      22.135832      22.079735      22.079739      22.135836      22.135845      22.079746      22.079760      22.135859      22.183346      22.183332      22.211941      22.211956      22.211977      22.212002      22.183390      22.183365      22.135876      22.079775      22.079796      22.135899      22.135927      22.079823      22.079853      22.135962      22.183458      22.183420      22.212034      22.212074      22.212120      22.212175      22.183556      22.183502      22.136003      22.079893      22.079937      22.136053      22.136110      22.079990      22.080053      22.136179      22.183689      22.183617      22.212238      22.212313      22.212399      22.212494      22.183865      22.183771      22.136255      22.080126      22.080210      22.136345      22.136448      22.080305      22.080416      22.136562      22.184093      22.183971      22.212605      22.212730      22.212872      22.213030      22.184385      22.184231      22.136694      22.080540      22.080683      22.136843      22.137011      22.080841      22.081022      22.137199      22.184755      22.184561      22.213209      22.213408      22.213629      22.213875      22.185213      22.184973      22.137409      22.081224      22.081450      22.137644      22.137903      22.081703      22.081984      22.138193      22.185778      22.185482      22.214148      22.214449      22.214783      22.215147      22.186466      22.186106      22.138514      22.082294      22.082638      22.138865      22.139254      22.083015      22.083433      22.139679      22.187294      22.186861      22.215548      22.215986      22.216463      22.216986      22.188284      22.187769      22.140144      22.083889      22.084389      22.140652      22.141207      22.084936      22.085529      22.141809      22.189455      22.188845      22.217550      22.218164      22.147615      22.091301      22.092392      22.148706      22.196384      22.225115      22.224022      22.195292      22.194271      22.223000      22.222042      22.193316      22.145643      22.146595      22.090282      22.089334      22.088453      22.144758      22.143934      22.087635      22.086876      22.086176      22.142462      22.143169      22.190828      22.190115      22.218828      22.219545      22.220318      22.191597      22.192425      22.221149      22.094803      22.093557      22.149872      22.151115      22.198790      22.197550      22.226278      22.227518      22.230234      22.228836      22.200109      22.201509      22.153845      22.152439      22.096130      22.097542      22.100634      22.099043      22.155336      22.156916      22.204565      22.202995      22.231714      22.233280      22.236679      22.234934      22.206226      22.207979      22.160355      22.158588      22.102320      22.104101      22.175577      22.119528      22.122189      22.178192      22.225605      22.254173      22.251621      22.223028      22.220562      22.249178      22.246840      22.218206      22.170691      22.173077      22.116989      22.114565      22.112255      22.168413      22.166245      22.110058      22.107967      22.105984      22.162216      22.164179      22.211769      22.209826      22.238516      22.240448      22.242477      22.213812      22.215958      22.244608      22.127878      22.124971      22.180925      22.183779      22.231102      22.228294      22.256838      22.259617      22.265524      22.262510      22.234028      22.237076      22.189859      22.186756      22.130915      22.134083      22.140829      22.137388      22.193090      22.196455      22.243546      22.240248      22.268658      22.271915      22.278811      22.275297      22.246973      22.250534      22.203596      22.199955      22.144415      22.148148      21.483610      21.426554      21.431398      21.488222      21.545179      21.602350      21.598162      21.540787      21.536650      21.594206      21.590469      21.532753      21.475206      21.479277      21.422012      21.417757      21.360344      21.364796      21.307583      21.302921      21.245457      21.187918      21.193045      21.250341      21.255606      21.198593      21.204596      21.261276      21.317959      21.312590      21.369558      21.374653      21.380093      21.385895      21.329868      21.323711      21.267372      21.211075      21.218054      21.273920      21.280943      21.225546      21.233545      21.288467      21.343481      21.336451      21.392076      21.398649      21.454174      21.509823      21.503906      21.447929      21.442066      21.436563      21.493130      21.498350      21.554785      21.549839      21.606783      21.611471      21.616436      21.560036      21.565615      21.621696      21.678209      21.735250      21.730518      21.673233      21.668522      21.664061      21.721758      21.726025      21.784042      21.779942      21.838667      21.842625      21.846773      21.788351      21.792877      21.851124      21.910004      21.905806      21.965416      21.969481      22.029388      22.089294      22.085461      22.025446      22.021667      22.081783      22.078255      22.018047      21.957806      21.897963      21.901794      21.961527      21.950848      21.890812      21.894304      21.954248      22.014580      22.074873      22.071632      22.011263      22.008091      22.068531      22.065563      22.005060      21.944500      21.947601      21.887482      21.884306      21.824617      21.765442      21.768797      21.827875      21.834896      21.831301      21.772327      21.776039      21.717705      21.713856      21.655825      21.659832      21.652031      21.710203      21.706738      21.648439      21.645041      21.703451      21.700340      21.641829      21.638796      21.635935      21.694611      21.697395      21.756363      21.753649      21.813118      21.815771      21.818569      21.759230      21.762255      21.821516      21.881283      21.878403      21.938726      21.941544      22.002167      22.062727      22.060019      21.999405      21.996775      22.057434      22.054972      21.994270      21.933495      21.873068      21.875666      21.936045      21.928774      21.868263      21.870602      21.931072      21.991888      22.052628      22.050398      21.989624      21.987478      22.048281      22.046272      21.985443      21.924536      21.926596      21.866053      21.863962      21.803854      21.744209      21.746365      21.805975      21.810602      21.808224      21.748655      21.751081      21.691982      21.689505      21.630701      21.633238      21.628315      21.687170      21.684975      21.626076      21.567438      21.508987      21.511324      21.569725      21.574768      21.572165      21.513824      21.516499      21.458355      21.455608      21.397453      21.400278      21.394823      21.453043      21.450653      21.392378      21.334108      21.336609      21.278360      21.275805      21.217430      21.158958      21.161621      21.220039      21.222870      21.164518      21.167667      21.225937      21.284109      21.281124      21.339306      21.342211      21.345339      21.348700      21.290808      21.287333      21.229258      21.171087      21.174797      21.232849      21.236732      21.178823      21.183187      21.240927      21.298584      21.294554      21.352312      21.356188      21.413773      21.410046      21.467800      21.471384      21.529085      21.586945      21.583620      21.525637      21.522394      21.580488      21.577539      21.519352      21.461298      21.403311      21.406563      21.464441      21.439503      21.381065      21.382595      21.441021      21.499504      21.558100      21.556606      21.497997      21.496607      21.555223      21.553946      21.495323      21.436817      21.438103      21.379658      21.378368      21.319931      21.321224      21.262762      21.261467      21.202944      21.144333      21.145626      21.204237      21.205658      21.147049      21.148615      21.207216      21.265730      21.264179      21.322638      21.324179      21.325855      21.327677      21.269264      21.267422      21.208921      21.150331      21.152210      21.210785      21.212816      21.154266      21.156511      21.215027      21.273445      21.271269      21.329653      21.331795      21.390108      21.448429      21.446362      21.388004      21.386057      21.384256      21.442665      21.444443      21.502886      21.501131      21.559710      21.561443      21.563305      21.504776      21.506807      21.565300      21.623978      21.682913      21.680979      21.622015      21.620180      21.618467      21.677477      21.679169      21.738485      21.736813      21.796549      21.798206      21.799973      21.740274      21.742180      21.801855      21.861990      21.860132      21.920750      21.922588      21.983519      22.044369      22.042570      21.981701      21.979986      22.040871      22.039267      21.978371      21.917391      21.856741      21.858383      21.919020      21.914427      21.853758      21.855200      21.915861      21.976852      22.037758      22.036339      21.975426      21.974089      22.035007      22.033758      21.972837      21.911831      21.913084      21.852411      21.851154      21.790932      21.731163      21.732428      21.792192      21.794996      21.793547      21.733788      21.735247      21.675898      21.674427      21.615393      21.616873      21.614017      21.673059      21.671791      21.612743      21.611568      21.670616      21.669531      21.610483      21.609484      21.608568      21.667608      21.668530      21.727900      21.726974      21.786737      21.787666      21.788673      21.728903      21.729990      21.789761      21.849983      21.848896      21.909573      21.910662      21.971668      22.032591      22.031502      21.970579      21.969566      22.030485      22.029541      21.968624      21.907623      21.846952      21.847887      21.908562      21.905956      21.845295      21.846090      21.906757      21.967752      22.028664      22.027851      21.966946      21.966200      22.027100      22.026405      21.965515      21.904539      21.905218      21.844564      21.843895      21.783707      21.723972      21.724627      21.784369      21.785879      21.785091      21.725342      21.726122      21.666763      21.665989      21.606960      21.607729      21.606262      21.665281      21.664637      21.605627      21.546867      21.488289      21.488905      21.547493      21.548943      21.548183      21.489586      21.490335      21.431847      21.431105      21.372688      21.373421      21.372028      21.430435      21.429831      21.371437      21.313061      21.313643      21.255234      21.254667      21.196222      21.137699      21.138237      21.196775      21.197397      21.138845      21.139530      21.198095      21.256580      21.255871      21.314289      21.315012      21.315813      21.316698      21.258247      21.257370      21.198874      21.140297      21.141151      21.199741      21.200703      21.142105      21.143162      21.201767      21.260288      21.259218      21.317675      21.318750      21.377186      21.376108      21.434553      21.435635      21.494144      21.552767      21.551683      21.493061      21.492069      21.550688      21.549776      21.491163      21.432665      21.374231      21.375124      21.433565      20.244961      20.183725      20.184559      20.245811      20.306873      20.367754      20.366871      20.306007      20.305271      20.366117      20.365475      20.304646      20.243633      20.244240      20.183022      20.182432      20.181942      20.243126      20.242708      20.181541      20.181213      20.180954      20.242090      20.242365      20.303328      20.303036      20.363792      20.364101      20.364477      20.303686      20.304123      20.364931      20.425556      20.485998      20.485506      20.425083      20.424688      20.424362      20.484747      20.485092      20.545311      20.544947      20.604967      20.605349      20.605803      20.545744      20.546257      20.606335      20.606955      20.607674      20.547560      20.546858      20.486580      20.426119      20.426781      20.487261      20.488052      20.427553      20.428452      20.488970      20.549303      20.609455      20.608503      20.548370      20.728228      20.668455      20.669422      20.729210      20.788818      20.848257      20.847250      20.787825      20.786945      20.846357      20.845570      20.786175      20.726610      20.727365      20.667608      20.666872      20.666231      20.725952      20.725382      20.665680      20.665207      20.664806      20.724470      20.724890      20.784401      20.783962      20.843288      20.843744      20.844271      20.784910      20.785498      20.844877      20.904095      20.963158      20.962519      20.903471      20.902927      20.902454      20.961466      20.961958      21.020844      21.020336      21.079077      21.079599      21.080193      21.021421      21.022078      21.080862      21.081615      21.082460      21.023647      21.022816      20.963882      20.904802      20.905605      20.964699      20.965618      20.906511      20.907530      20.966648      21.025618      21.084452      21.083403      21.024578      20.977858      20.918760      20.921116      20.980188      21.039106      21.097878      21.095602      21.036802      21.034702      21.093523      21.091625      21.032791      20.973816      20.914690      20.916624      20.975739      20.970499      20.911364      20.912941      20.972075      21.031055      21.089899      21.088329      21.029484      21.028059      21.086905      21.085615      21.026775      20.967796      20.908670      20.909945      20.969076      20.671766      20.670521      20.730320      20.731575      20.791203      20.789940      20.849388      20.850657      20.853651      20.852074      20.792616      20.794195      20.734564      20.732985      20.673170      20.674749      20.678499      20.676521      20.736330      20.738300      20.797913      20.795956      20.855404      20.857349      20.861885      20.859505      20.800085      20.802494      20.742926      20.740492      20.680706      20.683163      20.500216      20.439714      20.442280      20.502735      20.563042      20.623194      20.620724      20.560553      20.558323      20.618505      20.616520      20.556330      20.495960      20.435411      20.437431      20.497963      20.492613      20.432060      20.433628      20.494183      20.554558      20.614748      20.613171      20.552984      20.551596      20.611774      20.610540      20.550375      20.490025      20.429491      20.430689      20.491234      20.186693      20.185541      20.246807      20.247972      20.309059      20.307884      20.368778      20.369963      20.372896      20.371328      20.310417      20.311985      20.250895      20.249327      20.188040      20.189606      20.193531      20.191423      20.252707      20.254797      20.315853      20.313787      20.374687      20.376730      20.381678      20.379051      20.318216      20.320911      20.259970      20.257204      20.195972      20.198801      20.293541      20.235899      20.244490      20.300703      20.358202      20.417015      20.410965      20.351892      20.346024      20.405445      20.400408      20.340637      20.280989      20.286953      20.228168      20.221355      20.215425      20.275658      20.270935      20.210299      20.205883      20.202078      20.263145      20.266783      20.327448      20.323977      20.384642      20.387972      20.391693      20.331364      20.335752      20.395832      20.455811      20.515873      20.512094      20.451902      20.448355      20.445154      20.505543      20.508656      20.568865      20.565805      20.625940      20.628984      20.632355      20.572239      20.575943      20.636086      20.640215      20.644800      20.584394      20.579990      20.520004      20.460081      20.464708      20.524506      20.529398      20.469669      20.474903      20.534727      20.594215      20.655661      20.649912      20.589146      20.769342      20.710077      20.716005      20.774992      20.833424      20.891901      20.886856      20.828136      20.823315      20.882223      20.877987      20.818935      20.759718      20.764271      20.704840      20.700184      20.696020      20.755627      20.751942      20.692284      20.688919      20.685890      20.745626      20.748621      20.808105      20.805159      20.864513      20.867414      20.870609      20.811363      20.814962      20.874125      20.933157      20.992035      20.988653      20.929708      20.926569      20.923712      20.982752      20.985565      21.044401      21.041634      21.100365      21.103083      21.106045      21.047430      21.050739      21.109276      21.112795      21.116625      21.058302      21.054354      20.995739      20.936941      20.941086      20.999794      21.004232      20.945623      20.950586      21.009092      21.067324      21.125336      21.120796      21.062614      21.060802      21.004919      21.019855      21.071854      21.125492      21.179554      21.170658      21.115738      21.106768      21.162447      21.154882      21.098566      21.041855      20.983860      20.993355      21.050795      21.026720      20.968470      20.975700      21.033875      21.091097      21.147924      21.141533      21.084301      21.078115      21.135666      21.130280      21.072475      21.014416      20.956011      20.961948      21.020267      20.730543      20.722769      20.781282      20.788261      20.845427      20.839190      20.897362      20.903219      20.915886      20.909430      20.852091      20.859093      20.804356      20.795956      20.739527      20.749943      20.775986      20.762026      20.813377      20.822815      20.873367      20.866266      20.922409      20.928671      20.937767      20.934120      20.880060      20.885965      20.840771      20.832258      20.793652      20.818260      20.597157      20.567778      20.576006      20.682390      20.716805      20.673908      20.669497      20.712255      20.705063      20.577532      20.562544      20.590761      20.554844      20.490416      20.493774      20.564442      20.613007      20.690315      20.678957      20.609621      20.604801      20.669828      20.662210      20.599508      20.540581      20.480295      20.485617      20.547153      20.263212      20.253736      20.308350      20.316360      20.371681      20.364853      20.423689      20.431206      20.451174      20.440037      20.378378      20.384365      20.333237      20.324642      20.272202      20.279734      20.284492      20.342510      20.353453      20.388517      20.466652      20.494495      20.540005      20.514540      20.438646      20.362320      20.363733      20.342356      20.782125      20.841293      20.841270      20.782114      20.722790      20.663294      20.663286      20.722792      20.722809      20.663292      20.663313      20.722841      20.782196      20.782152      20.841330      20.841383      20.900412      20.900345      20.959211      20.959288      21.018024      21.076630      21.076529      21.017935      21.017866      21.076448      21.076387      21.017815      20.959112      20.959152      20.900299      20.900267      20.900249      20.900244      20.959070      20.959085      21.017778      21.076342      21.076309      21.017756      21.017742      21.076288      21.076277      21.017738      20.959070      20.959066      20.900248      20.900257      20.841293      20.782167      20.782145      20.841276      20.841263      20.841265      20.782125      20.782116      20.722799      20.722818      20.663338      20.663311      20.663370      20.722843      20.722876      20.663408      20.603760      20.543928      20.543879      20.603716      20.603643      20.603678      20.543833      20.543793      20.483755      20.483801      20.423578      20.423525      20.423634      20.483852      20.483908      20.423693      20.363281      20.363218      20.302603      20.302670      20.241854      20.180828      20.180758      20.241785      20.241716      20.180689      20.180620      20.241652      20.302477      20.363100      20.363157      20.302540      20.302368      20.363001      20.363047      20.302420      20.241589      20.180555      20.180494      20.241533      20.241484      20.180441      20.180395      20.241444      20.302290      20.302324      20.362965      20.362938      20.423389      20.483650      20.483660      20.423409      20.423439      20.423477      20.483713      20.483681      20.543736      20.543758      20.603617      20.603601      20.603598      20.543722      20.543722      20.603609      20.603636      20.543739      20.543777      20.603685      20.603861      20.603760      20.543837      20.543924      20.483805      20.483730      20.423439      20.423500      20.423403      20.483683      20.483658      20.423388      20.362926      20.362930      20.302265      20.302269      20.241417      20.180363      20.180344      20.241404      20.241411      20.180342      20.180361      20.241440      20.302319      20.363005      20.362955      20.302280      20.302485      20.363195      20.363085      20.302385      20.241495      20.180407      20.180483      20.241581      20.241705      20.180595      20.180750      20.241873      20.302803      20.302622      20.363348      20.363544      20.424097      20.484463      20.484234      20.423883      20.423717      20.423592      20.483912      20.484053      20.544201      20.544044      20.603994      20.604168      20.604382      20.544399      20.544645      20.604647      20.664469      20.664186      20.723814      20.724113      20.783588      20.842896      20.842562      20.783270      20.783005      20.842279      20.842041      20.782784      20.723360      20.663767      20.663954      20.723564      20.663616      20.723196      20.723066      20.663500      20.663414      20.663353      20.722891      20.722965      20.782345      20.782259      20.841459      20.841558      20.841686      20.782459      20.782604      20.841846      20.900928      20.959860      20.959671      20.900755      20.900612      20.900499      20.959389      20.959515      21.018276      21.018137      21.076756      21.076908      21.077091      21.018446      21.018650      21.077311      21.019176      21.077868      21.077568      21.018892      20.960087      20.901140      20.901392      20.960356      20.960672      20.901693      20.902044      20.961040      21.019894      21.019508      21.078217      21.078617      21.137224      21.136806      21.195301      21.195732      21.254164      21.312544      21.312084      21.253717      21.253325      21.311676      21.311317      21.252979      21.194592      21.136127      21.136444      21.194921      21.135857      21.194305      21.194057      21.135624      21.135426      21.135260      21.193668      21.193846      21.252193      21.252001      21.310287      21.310492      21.310730      21.252419      21.252678      21.311003      21.369312      21.427643      21.427343      21.369026      21.368774      21.368559      21.426853      21.427082      21.485456      21.485216      21.543701      21.543953      21.544239      21.485731      21.486042      21.544563      21.486792      21.545336      21.544928      21.486395      21.427984      21.369640      21.370012      21.428370      21.428802      21.370432      21.370905      21.429287      21.487736      21.487238      21.545794      21.546303      21.605051      21.664051      21.663521      21.604532      21.604063      21.603643      21.662611      21.663042      21.722347      21.721905      21.781599      21.782053      21.782553      21.722837      21.723377      21.783102      21.843283      21.842722      21.903349      21.903917      21.964886      22.025768      22.025181      21.964308      21.963779      22.024645      22.024153      21.963297      21.902359      21.902830      21.842213      21.841751      21.841331      21.840954      21.901541      21.901930      21.962858      22.023706      22.023298      21.962461      21.962101      22.022928      22.022594      21.961777      21.900877      21.901192      21.840614      21.840309      21.780199      21.780495      21.720831      21.720547      21.661295      21.602371      21.602634      21.661568      21.661877      21.602932      21.603268      21.662224      21.721508      21.781191      21.780825      21.721149      21.719873      21.779497      21.779314      21.719700      21.660488      21.601604      21.601759      21.660652      21.660839      21.601936      21.602139      21.661053      21.720293      21.720070      21.779703      21.779936      21.840036      21.839792      21.900341      21.900595      21.961485      22.022293      22.022022      21.961224      21.960989      22.021778      22.021561      21.960779      21.899918      21.900116      21.839577      21.839386      21.839218      21.839069      21.899584      21.899740      21.960594      22.021368      22.021196      21.960430      21.960285      22.021044      22.020908      21.960159      21.899328      21.899446      21.838942      21.838829      21.778791      21.719210      21.719307      21.778894      21.779156      21.779016      21.719419      21.719549      21.660347      21.660225      21.601358      21.601473      21.601263      21.660120      21.660030      21.601181      21.542585      21.542660      21.484243      21.484177      21.425892      21.367678      21.367727      21.425951      21.426022      21.367790      21.367868      21.426109      21.484419      21.542854      21.542749      21.484324      21.485006      21.543480      21.543287      21.484823      21.484667      21.543121      21.542976      21.484533      21.367962      21.426212      21.426336      21.368076      21.368212      21.426483      21.426655      21.368372      21.251839      21.310112      21.309965      21.251701      21.251589      21.309839      21.309736      21.251495      21.134846      21.193207      21.193289      21.134916      21.135008      21.193392      21.193518      21.135122      21.193090      21.134748      21.134789      21.193142      21.251419      21.309650      21.309582      21.251360      21.251314      21.309528      21.309486      21.251280      21.193027      21.193054      21.134720      21.134701      21.134691      21.134687      21.193001      21.193010      21.251257      21.309454      21.309431      21.251240      21.251232      21.309416      21.309408      21.251228      21.193001      21.134699      21.134691      21.192999      21.134708      21.193007      21.193014      21.134722      21.134735      21.134748      21.193037      21.193026      21.251240      21.251247      21.309410      21.309406      21.309402      21.251232      21.251228      21.309402      21.367563      21.425745      21.425735      21.367558      21.367556      21.367558      21.425728      21.425730      21.483973      21.483967      21.542330      21.542341      21.542355      21.483984      21.483999      21.542376      21.484045      21.542433      21.542400      21.484018      21.425760      21.367573      21.367586      21.425781      21.425808      21.367609      21.367638      21.425846      21.484123      21.484079      21.542475      21.542524      21.601112      21.659954      21.659891      21.601055      21.601007      21.600969      21.659792      21.659838      21.718996      21.718946      21.778503      21.778559      21.778624      21.719055      21.719126      21.778700      21.838732      21.838650      21.899134      21.899223      21.960049      22.020790      22.020687      21.959951      21.959867      22.020597      22.020519      21.959795      21.898991      21.899055      21.838577      21.838516      21.838465      21.838421      21.898886      21.898933      21.959734      22.020452      22.020395      21.959681      21.959637      22.020346      22.020304      21.959599      21.898809      21.898844      21.838385      21.838354      21.778358      21.778385      21.718842      21.718819      21.659683      21.600880      21.600893      21.659702      21.659727      21.600914      21.600939      21.659756      21.718904      21.778456      21.778418      21.718870      21.718775      21.778303      21.778294      21.718765      21.659641      21.600849      21.600853      21.659649      21.659657      21.600859      21.600868      21.659668      21.718800      21.718786      21.778318      21.778336      21.838329      21.838308      21.898758      21.898783      21.959566      22.020269      22.020241      21.959541      21.959520      22.020218      22.020199      21.959503      21.898726      21.898741      21.838291      21.838280      21.838268      21.838263      21.898705      21.898714      21.959490      22.020184      22.020174      21.959480      21.959475      22.020166      22.020163      21.959471      21.898697      21.898701      21.838257      21.838255      21.778273      21.718750      21.718752      21.778275      21.778284      21.778278      21.718754      21.718760      21.659637      21.659634      21.600843      21.600845      21.600843      21.659632      21.659632      21.600843      21.542311      21.542311      21.483961      21.483963      21.425737      21.36