<VTKFile type="UnstructuredGrid" version="1.0" byte_order="LittleEndian" header_type="UInt64">
  <UnstructuredGrid>
    <Piece NumberOfPoints="1908" NumberOfCells="892">
      <CellData Scalars="Scalars_">
        <DataArray type="Float32" Name="Scalars_" format="ascii">
     -58.153008      -60.303928      -60.375832      -58.222435      -56.219597      -54.405514      -54.341648      -56.152958      -56.081074      -54.272812      -54.200333      -56.005329      -57.998966      -58.078037      -60.226192      -60.144093      -62.391483      -62.475876      -64.766479      -64.680923      -66.946350      -69.124023      -69.207680      -67.031662      -67.111938      -69.286171      -69.358124      -67.185745      -64.921555      -64.847183      -62.555656      -62.629326      -62.695950      -62.755058      -65.048141      -64.988686      -67.252205      -69.422737      -69.479683      -67.310928      -67.361938      -69.529015      -69.571098      -67.405533      -65.144196      -65.099884      -62.806599      -62.850815      -60.592766      -58.432487      -58.390377      -60.549355      -60.498829      -60.440960      -58.285397      -58.341412      -56.333950      -56.280087      -54.463524      -54.515221      -54.560478      -56.381077      -56.421638      -54.599461      -52.994400      -51.627186      -51.590927      -52.956886      -52.913349      -52.863647      -51.500866      -51.548866      -50.437519      -50.390881      -49.546398      -49.592033      -49.632042      -50.478401      -50.513653      -49.666546      -49.096111      -49.062099      -48.775768      -48.809540      -48.691963      -48.977684      -49.022663      -48.736614      -48.586983      -48.871929      -48.927299      -48.641945      -48.465755      -48.527863      -48.812366      -48.749783      -49.315056      -50.154274      -50.219296      -49.378601      -49.495266      -49.439068      -50.281143      -50.338608      -51.447052      -51.387871      -52.746567      -52.807899      -52.680496      -51.324150      -51.257133      -52.610973      -52.539730      -51.188496      -51.120304      -52.468914      -52.401009      -52.338711      -50.995022      -51.054951      -49.958282      -49.900242      -49.066998      -49.123642      -49.185463      -50.021606      -50.087708      -49.250019      -48.685749      -48.622204      -48.339161      -48.402214      -48.223545      -48.505646      -48.561367      -48.278812      -48.137646      -48.419010      -48.457443      -48.175747      -48.097488      -48.111111      -48.392239      -48.378498      -48.937687      -49.767658      -49.782001      -48.951668      -49.017986      -48.978901      -49.809929      -49.850006      -50.943134      -50.901730      -52.241669      -52.284748      -52.211632      -50.872864      -50.858040      -52.196201      -53.766994      -53.783142      -55.568230      -55.551277      -57.523403      -59.648235      -59.666862      -57.541206      -57.575844      -59.703079      -59.754932      -57.625458      -55.648510      -53.859634      -53.814571      -55.601223      -55.927597      -54.126011      -54.052090      -55.850224      -55.775932      -53.981163      -53.916058      -55.707687      -59.819740      -57.687515      -57.759026      -59.894344      -59.975403      -57.836803      -57.917740      -60.059647      -64.592613      -62.304539      -62.217659      -64.504189      -64.418808      -62.133938      -62.056778      -64.339989      -68.786148      -66.604309      -66.683670      -68.864883      -68.949745      -66.769440      -66.858063      -69.037178      -66.479408      -68.661812      -68.717262      -66.535042      -64.271324      -61.989670      -61.935917      -64.216255      -64.177727      -61.898342      -61.879013      -64.157890      -66.420349      -66.440430      -68.622910      -68.602852      -70.651131      -70.670952      -72.545502      -72.526054      -74.205460      -75.682518      -75.701294      -74.224525      -74.261322      -75.737442      -75.788361      -74.313370      -72.636513      -70.763962      -70.709343      -72.583122      -72.939293      -71.076691      -70.991631      -72.857430      -72.777336      -70.908783      -70.831650      -72.702461      -75.850670      -74.377411      -74.449760      -75.920631      -75.994568      -74.526756      -74.605026      -76.069221      -78.427101      -77.338608      -77.267288      -78.358627      -78.289421      -77.196030      -77.128006      -78.222557      -79.932129      -79.151253      -79.217979      -80.000015      -80.067589      -79.285934      -79.352150      -80.132156      -79.037537      -79.812431      -79.867889      -79.089600      -78.161797      -77.066902      -77.016586      -78.111244      -78.074867      -76.980667      -76.961945      -78.055809      -78.979668      -78.999649      -79.771439      -79.749634      -80.380188      -80.882591      -80.912949      -80.405205      -80.513573      -80.451797      -80.969208      -81.042244      -81.468666      -81.374901      -81.673676      -81.809868      -81.574448      -81.302284      -81.263535      -81.523941      -81.658447      -81.720879      -82.833458      -82.765343      -82.641357      -82.430069      -81.856018      -82.097466      -82.216194      -82.294708      -82.525604      -82.475945      -82.656357      -82.751945      -82.764961      -82.684036      -82.717438      -82.790169      -82.820015      -82.752052      -82.614754      -82.572212      -82.355835      -82.406975      -82.126938      -82.069771      -81.708946      -81.769455      -81.325874      -80.784737      -80.721390      -81.263657      -81.194611      -80.653343      -80.582779      -81.119774      -81.559074      -81.917671      -82.001625      -81.639229      -81.906418      -82.253693      -82.284439      -81.939835      -81.507835      -80.977737      -80.938675      -81.471657      -81.429573      -80.893608      -80.842285      -81.381111      -81.821938      -81.867332      -82.217697      -82.175758      -82.450935      -82.488998      -82.687210      -82.653084      -82.785423      -82.850471      -82.879440      -82.816261      -82.843979      -82.905891      -82.929390      -82.868370      -82.743240      -82.717201      -82.521881      -82.550117      -82.574150      -82.594414      -82.784500      -82.765572      -82.889458      -82.949821      -82.967300      -82.907433      -82.922531      -82.982018      -82.994263      -82.935074      -82.813461      -82.800346      -82.611320      -82.625282      -82.365707      -82.028160      -82.011810      -82.350662      -82.332413      -82.310501      -81.968170      -81.991982      -81.564568      -81.538628      -81.011169      -81.039452      -81.063110      -81.586205      -81.604065      -81.082687      -80.451042      -80.429527      -79.670212      -79.693893      -78.794083      -77.733299      -77.704597      -78.768005      -78.736824      -77.670418      -77.630272      -78.700050      -79.608116      -80.372757      -80.403610      -79.641800      -80.336472      -79.568733      -79.523338      -80.294365      -80.246208      -80.192001      -79.414574      -79.471870      -78.553230      -78.492500      -77.407448      -77.471985      -77.530998      -78.608307      -78.657272      -77.583832      -76.330711      -74.883392      -74.822205      -76.273758      -76.210533      -76.141891      -74.681732      -74.754654      -73.097046      -73.019958      -71.160873      -71.241676      -71.317215      -73.168816      -73.234131      -71.386230      -73.343384      -71.502289      -71.448006      -73.292374      -74.937737      -76.381050      -76.424774      -74.985138      -75.025826      -76.462158      -76.493660      -75.060234      -73.424583      -73.387314      -71.549187      -71.589088      -71.622551      -71.650230      -73.481483      -73.455757      -75.088928      -76.519859      -76.541367      -75.112556      -75.131767      -76.558823      -76.572815      -75.147209      -73.519341      -71.691078      -71.672836      -73.502449      -73.557922      -71.732895      -71.726021      -73.551598      -73.543365      -71.717087      -71.705627      -73.532784      -76.583916      -75.159485      -75.169121      -76.592628      -76.599380      -75.176613      -75.182365      -76.604561      -78.884300      -77.833458      -77.828819      -78.880150      -78.874733      -77.822754      -77.814934      -78.867722      -80.510979      -79.760292      -79.766571      -80.516617      -80.520966      -79.771423      -79.775124      -80.524284      -79.742058      -80.494583      -80.503754      -79.752251      -78.858757      -77.804947      -77.792328      -78.847420      -78.833214      -77.776566      -77.757088      -78.815628      -79.713394      -79.729271      -80.483055      -80.468704      -81.098717      -81.618660      -81.630470      -81.111717      -81.130424      -81.122139      -81.639938      -81.647446      -82.067802      -82.060944      -82.395889      -82.402199      -82.387932      -82.052299      -82.041512      -82.377991      -82.636696      -82.645935      -82.832916      -82.824211      -82.945366      -83.004318      -83.012482      -82.953712      -82.960411      -83.019043      -83.024254      -82.965736      -82.845451      -82.839905      -82.653343      -82.659218      -82.663834      -82.667427      -82.853203      -82.849808      -82.969925      -83.028358      -83.031555      -82.973190      -82.975708      -83.034019      -83.035896      -82.977623      -82.857819      -82.855820      -82.670197      -82.672310      -82.416252      -82.413986      -82.080612      -82.083069      -81.664192      -81.148911      -81.145927      -81.661491      -81.657951      -81.142014      -81.136940      -81.653351      -82.073189      -82.407158      -82.411018      -82.077385      -82.087265      -82.420120      -82.420738      -82.087944      -81.669540      -81.154831      -81.154007      -81.668800      -81.667717      -81.152809      -81.151154      -81.666222      -82.084923      -82.086288      -82.419212      -82.417953      -82.673889      -82.675064      -82.860420      -82.859314      -82.979065      -83.037315      -83.038353      -82.980133      -82.980896      -83.039108      -83.039627      -82.981422      -82.861771      -82.861221      -82.675903      -82.676483      -82.676849      -82.677017      -82.862274      -82.862106      -82.981750      -83.039948      -83.040100      -82.981911      -82.421310      -82.421127      -82.088364      -82.088570      -81.670227      -81.669998      -81.155342      -81.155586      -78.893623      -77.843910      -77.843521      -78.893280      -79.783134      -80.531441      -80.531715      -79.783440      -80.530869      -79.782494      -79.781471      -80.529961      -80.528625      -80.526779      -79.777916      -79.779984      -78.889740      -78.887421      -77.836960      -77.839554      -77.841431      -78.891411      -78.892563      -77.842720      -76.614922      -75.193893      -75.192284      -76.613480      -76.611382      -76.608475      -75.186714      -75.189949      -73.566277      -73.562714      -71.738106      -71.741989      -71.744797      -73.568855      -73.570633      -71.746735      -73.572281      -71.748528      -71.747948      -73.571747      -75.194901      -76.615829      -76.616264      -75.195381      -69.740540      -69.739914      -67.581650      -67.582306      -65.324982      -65.324303      -63.031445      -63.032131      -56.589787      -54.761391      -54.760765      -56.589138      -58.605892      -58.606556      -60.771561      -60.770882      -60.769463      -60.767208      -58.602299      -58.604504      -56.587795      -54.759468      -54.757401      -56.585655      -56.582565      -54.754414      -54.750309      -56.578312      -58.594719      -58.599110      -60.763947      -60.759453      -63.019917      -63.024452      -65.317375      -65.312881      -67.570557      -69.729370      -69.733521      -67.574921      -67.578087      -69.736534      -69.738609      -67.580276      -65.322891      -63.030018      -63.027740      -65.320633      -67.556992      -69.716438      -69.723785      -67.564705      -65.306854      -63.013847      -63.005871      -65.298935      -65.288673      -62.995541      -62.982346      -65.275551      -67.534203      -67.546997      -69.706902      -69.694672      -69.679184      -67.518005      -67.497765      -69.659790      -69.635788      -69.606468      -67.442261      -67.472763      -65.212708      -65.181595      -62.888180      -62.919312      -62.944908      -65.238251      -65.258965      -62.965687      -60.705849      -58.542427      -58.522476      -60.685356      -60.660137      -60.629494      -58.468155      -58.497940      -56.484760      -56.456024      -54.632523      -54.660168      -54.682972      -56.508446      -56.527725      -54.701538      -54.716465      -54.728321      -56.555515      -56.543217      -58.558456      -60.722294      -60.735336      -58.571171      -58.581135      -60.745548      -60.753441      -58.588844      -56.572620      -54.744820      -54.737617      -56.565159      -51.755981      -53.127537      -53.134487      -51.762711      -50.645496      -49.795658      -49.789242      -50.638947      -50.630489      -49.780956      -49.770401      -50.619713      -51.736221      -51.747292      -53.118565      -53.107128      -53.092735      -51.722290      -51.704975      -53.074837      -53.052864      -53.026237      -51.657967      -51.683720      -50.568630      -50.543583      -49.695847      -49.720371      -49.740623      -50.589310      -50.606155      -49.757122      -49.185421      -48.898216      -48.882061      -49.169147      -49.149181      -49.125000      -48.838223      -48.862236      -48.911221      -49.198513      -49.208923      -48.921558      -48.929672      -49.217094      -49.223423      -48.935959      -48.946953      -49.234497      -49.236317      -48.948761      -48.940754      -48.944344      -49.231869      -49.228252      -49.800556      -49.804218      -50.654236      -50.650494      -51.767841      -53.139786      -53.143749      -51.771683      -51.774475      -53.146633      -53.148628      -51.776409      -50.658836      -50.656952      -49.806881      -49.808727      -49.809887      -49.810448      -50.660591      -50.660019      -51.777622      -53.149883      -53.150486      -51.778210      -49.238010      -49.237461      -48.949898      -48.950443         </DataArray>
      </CellData>
      <Points>
        <DataArray type="Float64" Name="Points" NumberOfComponents="3" format="ascii">
6300.000000 3000.000000 0.000000
6600.000000 3000.000000 0.000000
6600.000000 3300.000000 0.000000
6300.000000 3300.000000 0.000000
6300.000000 3000.000000 300.000000
6600.000000 3000.000000 300.000000
6600.000000 3300.000000 300.000000
6300.000000 3300.000000 300.000000
6000.000000 3000.000000 0.000000
6000.000000 3300.000000 0.000000
6000.000000 3000.000000 300.000000
6000.000000 3300.000000 300.000000
6300.000000 3600.000000 0.000000
6000.000000 3600.000000 0.000000
6300.000000 3600.000000 300.000000
6000.000000 3600.000000 300.000000
6600.000000 3600.000000 0.000000
6600.000000 3600.000000 300.000000
6900.000000 3300.000000 0.000000
6900.000000 3600.000000 0.000000
6900.000000 3300.000000 300.000000
6900.000000 3600.000000 300.000000
7200.000000 3300.000000 0.000000
7200.000000 3600.000000 0.000000
7200.000000 3300.000000 300.000000
7200.000000 3600.000000 300.000000
6900.000000 3000.000000 0.000000
7200.000000 3000.000000 0.000000
6900.000000 3000.000000 300.000000
7200.000000 3000.000000 300.000000
6600.000000 2700.000000 0.000000
6900.000000 2700.000000 0.000000
6600.000000 2700.000000 300.000000
6900.000000 2700.000000 300.000000
7200.000000 2700.000000 0.000000
7200.000000 2700.000000 300.000000
6900.000000 2400.000000 0.000000
7200.000000 2400.000000 0.000000
6900.000000 2400.000000 300.000000
7200.000000 2400.000000 300.000000
6600.000000 2400.000000 0.000000
6600.000000 2400.000000 300.000000
6300.000000 2400.000000 0.000000
6300.000000 2700.000000 0.000000
6300.000000 2400.000000 300.000000
6300.000000 2700.000000 300.000000
6000.000000 2700.000000 0.000000
6000.000000 2700.000000 300.000000
6000.000000 2400.000000 0.000000
6000.000000 2400.000000 300.000000
5700.000000 2400.000000 0.000000
5700.000000 2700.000000 0.000000
5700.000000 2400.000000 300.000000
5700.000000 2700.000000 300.000000
5700.000000 3000.000000 0.000000
5700.000000 3000.000000 300.000000
5400.000000 2700.000000 0.000000
5400.000000 3000.000000 0.000000
5400.000000 2700.000000 300.000000
5400.000000 3000.000000 300.000000
5400.000000 2400.000000 0.000000
5400.000000 2400.000000 300.000000
5100.000000 2400.000000 0.000000
5100.000000 2700.000000 0.000000
5100.000000 2400.000000 300.000000
5100.000000 2700.000000 300.000000
4800.000000 2400.000000 0.000000
4800.000000 2700.000000 0.000000
4800.000000 2400.000000 300.000000
4800.000000 2700.000000 300.000000
5100.000000 3000.000000 0.000000
4800.000000 3000.000000 0.000000
5100.000000 3000.000000 300.000000
4800.000000 3000.000000 300.000000
5400.000000 3300.000000 0.000000
5100.000000 3300.000000 0.000000
5400.000000 3300.000000 300.000000
5100.000000 3300.000000 300.000000
4800.000000 3300.000000 0.000000
4800.000000 3300.000000 300.000000
5100.000000 3600.000000 0.000000
4800.000000 3600.000000 0.000000
5100.000000 3600.000000 300.000000
4800.000000 3600.000000 300.000000
5400.000000 3600.000000 0.000000
5400.000000 3600.000000 300.000000
5700.000000 3300.000000 0.000000
5700.000000 3600.000000 0.000000
5700.000000 3300.000000 300.000000
5700.000000 3600.000000 300.000000
6000.000000 3900.000000 0.000000
5700.000000 3900.000000 0.000000
6000.000000 3900.000000 300.000000
5700.000000 3900.000000 300.000000
6000.000000 4200.000000 0.000000
5700.000000 4200.000000 0.000000
6000.000000 4200.000000 300.000000
5700.000000 4200.000000 300.000000
5400.000000 3900.000000 0.000000
5400.000000 4200.000000 0.000000
5400.000000 3900.000000 300.000000
5400.000000 4200.000000 300.000000
5100.000000 3900.000000 0.000000
5100.000000 3900.000000 300.000000
4800.000000 3900.000000 0.000000
4800.000000 3900.000000 300.000000
5100.000000 4200.000000 0.000000
4800.000000 4200.000000 0.000000
5100.000000 4200.000000 300.000000
4800.000000 4200.000000 300.000000
5400.000000 4500.000000 0.000000
5100.000000 4500.000000 0.000000
5400.000000 4500.000000 300.000000
5100.000000 4500.000000 300.000000
4800.000000 4500.000000 0.000000
4800.000000 4500.000000 300.000000
5100.000000 4800.000000 0.000000
4800.000000 4800.000000 0.000000
5100.000000 4800.000000 300.000000
4800.000000 4800.000000 300.000000
5400.000000 4800.000000 0.000000
5400.000000 4800.000000 300.000000
5700.000000 4500.000000 0.000000
5700.000000 4800.000000 0.000000
5700.000000 4500.000000 300.000000
5700.000000 4800.000000 300.000000
6000.000000 4500.000000 0.000000
6000.000000 4500.000000 300.000000
6000.000000 4800.000000 0.000000
6000.000000 4800.000000 300.000000
6300.000000 4500.000000 0.000000
6300.000000 4800.000000 0.000000
6300.000000 4500.000000 300.000000
6300.000000 4800.000000 300.000000
6600.000000 4500.000000 0.000000
6600.000000 4800.000000 0.000000
6600.000000 4500.000000 300.000000
6600.000000 4800.000000 300.000000
6300.000000 4200.000000 0.000000
6600.000000 4200.000000 0.000000
6300.000000 4200.000000 300.000000
6600.000000 4200.000000 300.000000
6300.000000 3900.000000 0.000000
6300.000000 3900.000000 300.000000
6600.000000 3900.000000 0.000000
6600.000000 3900.000000 300.000000
6900.000000 3900.000000 0.000000
6900.000000 4200.000000 0.000000
6900.000000 3900.000000 300.000000
6900.000000 4200.000000 300.000000
7200.000000 3900.000000 0.000000
7200.000000 3900.000000 300.000000
7200.000000 4200.000000 0.000000
7200.000000 4200.000000 300.000000
7200.000000 4500.000000 0.000000
6900.000000 4500.000000 0.000000
7200.000000 4500.000000 300.000000
6900.000000 4500.000000 300.000000
6900.000000 4800.000000 0.000000
6900.000000 4800.000000 300.000000
7200.000000 4800.000000 0.000000
7200.000000 4800.000000 300.000000
7500.000000 4500.000000 0.000000
7500.000000 4800.000000 0.000000
7500.000000 4500.000000 300.000000
7500.000000 4800.000000 300.000000
7800.000000 4500.000000 0.000000
7800.000000 4800.000000 0.000000
7800.000000 4500.000000 300.000000
7800.000000 4800.000000 300.000000
7500.000000 4200.000000 0.000000
7800.000000 4200.000000 0.000000
7500.000000 4200.000000 300.000000
7800.000000 4200.000000 300.000000
7500.000000 3900.000000 0.000000
7500.000000 3900.000000 300.000000
7500.000000 3600.000000 0.000000
7500.000000 3600.000000 300.000000
7800.000000 3600.000000 0.000000
7800.000000 3900.000000 0.000000
7800.000000 3600.000000 300.000000
7800.000000 3900.000000 300.000000
8100.000000 3900.000000 0.000000
8100.000000 4200.000000 0.000000
8100.000000 3900.000000 300.000000
8100.000000 4200.000000 300.000000
8100.000000 3600.000000 0.000000
8100.000000 3600.000000 300.000000
8400.000000 3600.000000 0.000000
8400.000000 3900.000000 0.000000
8400.000000 3600.000000 300.000000
8400.000000 3900.000000 300.000000
8400.000000 4200.000000 0.000000
8400.000000 4200.000000 300.000000
8400.000000 4500.000000 0.000000
8100.000000 4500.000000 0.000000
8400.000000 4500.000000 300.000000
8100.000000 4500.000000 300.000000
8100.000000 4800.000000 0.000000
8100.000000 4800.000000 300.000000
8400.000000 4800.000000 0.000000
8400.000000 4800.000000 300.000000
8700.000000 4500.000000 0.000000
8700.000000 4800.000000 0.000000
8700.000000 4500.000000 300.000000
8700.000000 4800.000000 300.000000
8700.000000 4200.000000 0.000000
8700.000000 4200.000000 300.000000
9000.000000 4200.000000 0.000000
9000.000000 4500.000000 0.000000
9000.000000 4200.000000 300.000000
9000.000000 4500.000000 300.000000
9000.000000 4800.000000 0.000000
9000.000000 4800.000000 300.000000
8700.000000 3600.000000 0.000000
9000.000000 3600.000000 0.000000
9000.000000 3900.000000 0.000000
8700.000000 3900.000000 0.000000
8700.000000 3600.000000 300.000000
9000.000000 3600.000000 300.000000
9000.000000 3900.000000 300.000000
8700.000000 3900.000000 300.000000
8700.000000 3000.000000 0.000000
9000.000000 3000.000000 0.000000
9000.000000 3300.000000 0.000000
8700.000000 3300.000000 0.000000
8700.000000 3000.000000 300.000000
9000.000000 3000.000000 300.000000
9000.000000 3300.000000 300.000000
8700.000000 3300.000000 300.000000
8400.000000 3000.000000 0.000000
8400.000000 3300.000000 0.000000
8400.000000 3000.000000 300.000000
8400.000000 3300.000000 300.000000
8700.000000 2400.000000 0.000000
9000.000000 2400.000000 0.000000
9000.000000 2700.000000 0.000000
8700.000000 2700.000000 0.000000
8700.000000 2400.000000 300.000000
9000.000000 2400.000000 300.000000
9000.000000 2700.000000 300.000000
8700.000000 2700.000000 300.000000
8400.000000 2700.000000 0.000000
8400.000000 2700.000000 300.000000
8400.000000 2400.000000 0.000000
8400.000000 2400.000000 300.000000
8100.000000 2400.000000 0.000000
8100.000000 2700.000000 0.000000
8100.000000 2400.000000 300.000000
8100.000000 2700.000000 300.000000
7800.000000 2400.000000 0.000000
7800.000000 2700.000000 0.000000
7800.000000 2400.000000 300.000000
7800.000000 2700.000000 300.000000
8100.000000 3000.000000 0.000000
7800.000000 3000.000000 0.000000
8100.000000 3000.000000 300.000000
7800.000000 3000.000000 300.000000
8100.000000 3300.000000 0.000000
8100.000000 3300.000000 300.000000
7800.000000 3300.000000 0.000000
7800.000000 3300.000000 300.000000
7500.000000 3300.000000 0.000000
7500.000000 3300.000000 300.000000
7500.000000 3000.000000 0.000000
7500.000000 3000.000000 300.000000
7500.000000 2700.000000 0.000000
7500.000000 2700.000000 300.000000
7500.000000 2400.000000 0.000000
7500.000000 2400.000000 300.000000
7200.000000 2100.000000 0.000000
7500.000000 2100.000000 0.000000
7200.000000 2100.000000 300.000000
7500.000000 2100.000000 300.000000
7800.000000 2100.000000 0.000000
7800.000000 2100.000000 300.000000
7500.000000 1800.000000 0.000000
7800.000000 1800.000000 0.000000
7500.000000 1800.000000 300.000000
7800.000000 1800.000000 300.000000
7200.000000 1800.000000 0.000000
7200.000000 1800.000000 300.000000
7200.000000 1500.000000 0.000000
7500.000000 1500.000000 0.000000
7200.000000 1500.000000 300.000000
7500.000000 1500.000000 300.000000
7200.000000 1200.000000 0.000000
7500.000000 1200.000000 0.000000
7200.000000 1200.000000 300.000000
7500.000000 1200.000000 300.000000
7800.000000 1200.000000 0.000000
7800.000000 1500.000000 0.000000
7800.000000 1200.000000 300.000000
7800.000000 1500.000000 300.000000
8100.000000 1500.000000 0.000000
8100.000000 1800.000000 0.000000
8100.000000 1500.000000 300.000000
8100.000000 1800.000000 300.000000
8100.000000 1200.000000 0.000000
8100.000000 1200.000000 300.000000
8400.000000 1200.000000 0.000000
8400.000000 1500.000000 0.000000
8400.000000 1200.000000 300.000000
8400.000000 1500.000000 300.000000
8400.000000 1800.000000 0.000000
8400.000000 1800.000000 300.000000
8400.000000 2100.000000 0.000000
8100.000000 2100.000000 0.000000
8400.000000 2100.000000 300.000000
8100.000000 2100.000000 300.000000
8700.000000 2100.000000 0.000000
8700.000000 2100.000000 300.000000
8700.000000 1800.000000 0.000000
8700.000000 1800.000000 300.000000
9000.000000 1800.000000 0.000000
9000.000000 2100.000000 0.000000
9000.000000 1800.000000 300.000000
9000.000000 2100.000000 300.000000
8700.000000 1200.000000 0.000000
9000.000000 1200.000000 0.000000
9000.000000 1500.000000 0.000000
8700.000000 1500.000000 0.000000
8700.000000 1200.000000 300.000000
9000.000000 1200.000000 300.000000
9000.000000 1500.000000 300.000000
8700.000000 1500.000000 300.000000
8700.000000 600.000000 0.000000
9000.000000 600.000000 0.000000
9000.000000 900.000000 0.000000
8700.000000 900.000000 0.000000
8700.000000 600.000000 300.000000
9000.000000 600.000000 300.000000
9000.000000 900.000000 300.000000
8700.000000 900.000000 300.000000
8400.000000 600.000000 0.000000
8400.000000 900.000000 0.000000
8400.000000 600.000000 300.000000
8400.000000 900.000000 300.000000
8700.000000 0.000000 0.000000
9000.000000 0.000000 0.000000
9000.000000 300.000000 0.000000
8700.000000 300.000000 0.000000
8700.000000 0.000000 300.000000
9000.000000 0.000000 300.000000
9000.000000 300.000000 300.000000
8700.000000 300.000000 300.000000
8400.000000 300.000000 0.000000
8400.000000 300.000000 300.000000
8400.000000 0.000000 0.000000
8400.000000 0.000000 300.000000
8100.000000 0.000000 0.000000
8100.000000 300.000000 0.000000
8100.000000 0.000000 300.000000
8100.000000 300.000000 300.000000
7800.000000 0.000000 0.000000
7800.000000 300.000000 0.000000
7800.000000 0.000000 300.000000
7800.000000 300.000000 300.000000
8100.000000 600.000000 0.000000
7800.000000 600.000000 0.000000
8100.000000 600.000000 300.000000
7800.000000 600.000000 300.000000
8100.000000 900.000000 0.000000
8100.000000 900.000000 300.000000
7800.000000 900.000000 0.000000
7800.000000 900.000000 300.000000
7500.000000 900.000000 0.000000
7500.000000 900.000000 300.000000
7500.000000 600.000000 0.000000
7500.000000 600.000000 300.000000
7200.000000 600.000000 0.000000
7200.000000 900.000000 0.000000
7200.000000 600.000000 300.000000
7200.000000 900.000000 300.000000
7200.000000 300.000000 0.000000
7500.000000 300.000000 0.000000
7200.000000 300.000000 300.000000
7500.000000 300.000000 300.000000
7500.000000 0.000000 0.000000
7500.000000 0.000000 300.000000
7200.000000 0.000000 0.000000
7200.000000 0.000000 300.000000
6900.000000 0.000000 0.000000
6900.000000 300.000000 0.000000
6900.000000 0.000000 300.000000
6900.000000 300.000000 300.000000
6900.000000 600.000000 0.000000
6900.000000 600.000000 300.000000
6600.000000 300.000000 0.000000
6600.000000 600.000000 0.000000
6600.000000 300.000000 300.000000
6600.000000 600.000000 300.000000
6600.000000 0.000000 0.000000
6600.000000 0.000000 300.000000
6300.000000 0.000000 0.000000
6300.000000 300.000000 0.000000
6300.000000 0.000000 300.000000
6300.000000 300.000000 300.000000
6000.000000 0.000000 0.000000
6000.000000 300.000000 0.000000
6000.000000 0.000000 300.000000
6000.000000 300.000000 300.000000
6300.000000 600.000000 0.000000
6000.000000 600.000000 0.000000
6300.000000 600.000000 300.000000
6000.000000 600.000000 300.000000
6600.000000 900.000000 0.000000
6300.000000 900.000000 0.000000
6600.000000 900.000000 300.000000
6300.000000 900.000000 300.000000
6000.000000 900.000000 0.000000
6000.000000 900.000000 300.000000
6300.000000 1200.000000 0.000000
6000.000000 1200.000000 0.000000
6300.000000 1200.000000 300.000000
6000.000000 1200.000000 300.000000
6600.000000 1200.000000 0.000000
6600.000000 1200.000000 300.000000
6900.000000 900.000000 0.000000
6900.000000 1200.000000 0.000000
6900.000000 900.000000 300.000000
6900.000000 1200.000000 300.000000
6600.000000 2100.000000 0.000000
6900.000000 2100.000000 0.000000
6600.000000 2100.000000 300.000000
6900.000000 2100.000000 300.000000
6900.000000 1800.000000 0.000000
6900.000000 1800.000000 300.000000
6600.000000 1800.000000 0.000000
6600.000000 1800.000000 300.000000
6600.000000 1500.000000 0.000000
6900.000000 1500.000000 0.000000
6600.000000 1500.000000 300.000000
6900.000000 1500.000000 300.000000
6300.000000 1500.000000 0.000000
6000.000000 1500.000000 0.000000
6300.000000 1500.000000 300.000000
6000.000000 1500.000000 300.000000
6300.000000 1800.000000 0.000000
6300.000000 1800.000000 300.000000
6000.000000 1800.000000 0.000000
6000.000000 1800.000000 300.000000
6300.000000 2100.000000 0.000000
6000.000000 2100.000000 0.000000
6300.000000 2100.000000 300.000000
6000.000000 2100.000000 300.000000
5400.000000 2100.000000 0.000000
5700.000000 2100.000000 0.000000
5400.000000 2100.000000 300.000000
5700.000000 2100.000000 300.000000
5700.000000 1800.000000 0.000000
5700.000000 1800.000000 300.000000
5400.000000 1800.000000 0.000000
5400.000000 1800.000000 300.000000