<VTKFile type="UnstructuredGrid" version="1.0" byte_order="LittleEndian" header_type="UInt64">
  <UnstructuredGrid>
    <Piece NumberOfPoints="1908" NumberOfCells="892">
      <CellData Scalars="Scalars_">
        <DataArray type="Float32" Name="Scalars_" format="ascii">
     13.249061      13.071623      13.067629      13.245022      13.418591      13.587648      13.591759      13.422668      13.428166      13.597244      13.604306      13.435315      13.261796      13.254565      13.077125      13.084433      12.903596      12.896219      12.712036      12.719471      12.532134      12.341599      12.334082      12.524652      12.519217      12.328691      12.324954      12.515405      12.702687      12.706568      12.890729      12.886788      12.884048      12.882195      12.698231      12.700019      12.512812      12.322438      12.320785      12.511090      12.509973      12.319718      12.319042      12.509259      12.696309      12.697061      12.880971      12.880179      13.060795      13.237968      13.238843      13.061627      13.062904      13.064822      13.242153      13.240173      13.413626      13.415665      13.584669      13.582572      13.581137      13.412242      13.411325      13.580177      13.743319      13.898682      13.899727      13.744321      13.745808      13.747960      13.903473      13.901266      14.045451      14.047712      14.174807      14.172492      14.170853      14.043861      14.042772      14.169723      14.269689      14.270857      14.327441      14.326249      14.331553      14.274904      14.272540      14.329156      14.339105      14.282393      14.278129      14.334810      14.351314      14.344579      14.287848      14.294587      14.194421      14.067300      14.060478      14.187654      14.177982      14.182210      14.055034      14.050838      13.906551      13.910718      13.755129      13.750990      13.760600      13.916173      13.923066      13.767575      13.776127      13.931443      13.941188      13.786159      13.797352      13.809120      13.963239      13.951978      14.095433      14.106238      14.232306      14.221896      14.211783      14.085008      14.075520      14.202513      14.302591      14.311701      14.368311      14.359282      14.387963      14.331667      14.321572      14.378051      14.405399      14.349544      14.341269      14.397347      14.414462      14.411319      14.355652      14.358903      14.260718      14.136082      14.132465      14.257300      14.242268      14.250899      14.125712      14.116645      13.974154      13.983718      13.830719      13.820601      13.838323      13.990872      13.994714      13.842418      13.682652      13.678275      13.512781      13.517474      13.348094      13.175221      13.169779      13.343048      13.333775      13.159817      13.146841      13.321622      13.492717      13.659441      13.670172      13.504124      13.444244      13.613044      13.623384      13.454909      13.467010      13.635015      13.647337      13.479931      13.132501      13.308093      13.294526      13.118237      13.105109      13.281926      13.270922      13.093754      12.729176      12.913111      12.924829      12.741265      12.755541      12.938515      12.953527      12.771363      12.397741      12.586092      12.569394      12.380092      12.364528      12.554494      12.542023      12.351665      12.619410      12.433532      12.416208      12.603368      12.787565      12.968756      12.982644      12.802469      12.814070      12.993377      12.999267      12.820468      12.638975      12.631994      12.447243      12.454898      12.268352      12.259909      12.070120      12.079498      11.888595      11.696063      11.684162      11.878088      11.859734      11.663601      11.638827      11.837303      12.033117      12.226112      12.244895      12.053582      11.961249      12.158083      12.171350      11.974934      11.991968      12.187621      12.206314      12.011815      11.613787      11.814276      11.793136      11.591173      11.572389      11.775271      11.761148      11.557798      11.141768      11.351279      11.366377      11.157425      11.178437      11.386198      11.410527      11.204806      10.788189      10.997121      10.968266      10.756261      10.732256      10.945869      10.929588      10.715298      11.067116      10.869319      10.827129      11.031221      11.235191      11.437968      11.465602      11.266418      11.293272      11.488915      11.502584      11.309252      11.117804      11.098684      10.907410      10.930953      10.752865      10.589692      10.550482      10.722905      10.624396      10.675458      10.489165      10.424863      10.230240      10.316140      10.166973      10.039757      10.278935      10.398506      10.449853      10.343803      10.284255      10.207614      9.133056      9.224030      9.364554      9.565344      10.061936      9.841907      9.751703      9.707518      9.517377      9.538923      9.365301      9.257633      9.267531      9.361284      9.355603      9.268205      9.265845      9.350241      9.492531      9.502499      9.682939      9.668335      9.864244      9.881558      10.089710      10.071448      10.284439      10.499783      10.517423      10.302620      10.330255      10.543232      10.578965      10.370535      10.163748      9.958395      9.910213      10.118680      10.048409      9.842997      9.840458      10.045633      10.257685      10.472730      10.475773      10.260622      10.265308      10.480586      10.488128      10.272742      10.060012      10.052867      9.847075      9.853636      9.659359      9.653749      9.481505      9.485897      9.345904      9.262959      9.260434      9.342668      9.340368      9.258491      9.257091      9.338788      9.476732      9.478617      9.650215      9.647986      9.646582      9.645700      9.474733      9.475514      9.337729      9.256124      9.255475      9.337032      9.336581      9.255049      9.254774      9.336292      9.473925      9.474237      9.645148      9.644805      9.836913      10.041778      10.042182      9.837288      9.837895      9.838877      10.043908      10.042841      10.254717      10.255853      10.470820      10.469631      10.468894      10.254015      10.253585      10.468441      10.683800      10.684274      10.898532      10.898040      11.110157      11.319562      11.320094      11.110669      11.111492      11.320949      11.322308      11.112806      10.900599      10.686274      10.685040      10.899326      10.688242      10.902622      10.905805      10.691360      10.696249      10.703813      10.918307      10.910749      11.123134      11.130684      11.340380      11.332830      11.327765      11.118132      11.114883      11.324446      11.530984      11.734340      11.737823      11.534383      11.539517      11.547069      11.750583      11.743029      11.943295      11.950846      12.147845      12.140306      12.134969      11.938020      11.934450      12.131313      11.930570      12.127290      12.128878      11.932095      11.732060      11.528779      11.527370      11.730597      11.729669      11.526482      11.525926      11.729088      11.928988      11.929600      12.126273      12.125630      12.125230      12.124981      11.928374      11.928609      11.728726      11.525581      11.525370      11.728503      11.728367      11.525240      11.525162      11.728285      11.928143      12.124736      12.124829      11.928230      11.928027      12.124614      12.124626      11.928039      11.928058      12.124646      12.124680      11.928089      11.525114      11.728234      11.728205      11.525085      11.525068      11.728187      11.728175      11.525059      11.109366      11.318734      11.318744      11.109375      11.109390      11.318760      11.318788      11.109416      10.683121      10.897329      10.897305      10.683097      10.683084      10.897290      10.897282      10.683075      10.897438      10.683224      10.683159      10.897370      11.109459      11.318832      11.318907      11.109530      11.109648      11.319031      11.319233      11.109841      10.897737      10.897551      10.683331      10.683509      10.468163      10.253321      10.253160      10.467994      10.467830      10.467892      10.253064      10.253005      10.041233      10.041288      9.836457      9.836406      9.836543      10.041380      10.041531      9.836683      9.644593      9.644464      9.473608      9.473729      9.336110      9.254600      9.254489      9.335997      9.335926      9.254420      9.254378      9.335882      9.473488      9.473534      9.644383      9.644335      9.644306      9.644288      9.473444      9.473460      9.335856      9.254353      9.254337      9.335840      9.335831      9.254328      9.254322      9.335825      9.473428      9.473433      9.644278      9.644272      9.836339      9.836345      10.041169      10.041162      10.252930      10.467750      10.467758      10.252937      10.252950      10.467771      10.467793      10.252971      10.041201      9.836375      9.836356      10.041181      10.041154      9.836331      9.836330      10.041153      10.252921      10.467740      10.467741      10.252921      10.252923      10.467743      10.467746      10.252926      10.041158      10.041156      9.836332      9.836334      9.644268      9.644266      9.473422      9.473425      9.335821      9.254318      9.254316      9.335819      9.335818      9.254315      9.254314      9.335817      9.473420      9.473421      9.644264      9.644264      9.644263      9.644263      9.473420      9.473420      9.335817      9.254314      9.254314      9.335816      9.836329      9.836330      10.041153      10.041153      10.252920      10.252920      10.467740      10.467740      11.109354      11.318722      11.318722      11.109354      10.897270      10.683064      10.683064      10.897270      10.683065      10.897271      10.897272      10.683066      10.683067      10.683070      10.897277      10.897274      11.109358      11.109361      11.318728      11.318726      11.318724      11.109356      11.109355      11.318723      11.525046      11.728162      11.728164      11.525047      11.525049      11.525052      11.728169      11.728166      11.928017      11.928020      12.124607      12.124602      12.124600      11.928015      11.928013      12.124599      11.928012      12.124598      12.124598      11.928013      11.728162      11.525045      11.525045      11.728161      12.317946      12.317947      12.508097      12.508097      12.695072      12.695072      12.878863      12.878863      13.409739      13.578491      13.578492      13.409739      13.236478      13.236477      13.059394      13.059395      13.059396      13.059398      13.236481      13.236479      13.409740      13.578493      13.578496      13.409742      13.409747      13.578501      13.578507      13.409754      13.236491      13.236485      13.059401      13.059407      12.878875      12.878869      12.695078      12.695083      12.508107      12.317957      12.317952      12.508102      12.508100      12.317949      12.317948      12.508098      12.695073      12.878864      12.878866      12.695075      12.508129      12.317977      12.317964      12.508115      12.695091      12.878884      12.878901      12.695107      12.695131      12.878926      12.878971      12.695172      12.508190      12.508152      12.317999      12.318034      12.318094      12.508254      12.508359      12.318192      12.318355      12.318618      12.508810      12.508532      12.695537      12.695833      12.879676      12.879360      12.879164      12.695353      12.695241      12.879044      13.059588      13.236687      13.236824      13.059717      13.059926      13.060262      13.237405      13.237047      13.410350      13.410729      13.579550      13.579146      13.578892      13.410111      13.409964      13.578733      13.578636      13.578577      13.409819      13.409873      13.236602      13.059510      13.059463      13.236551      13.236521      13.059434      13.059417      13.236502      13.409765      13.578521      13.578542      13.409785      13.896846      13.741584      13.741561      13.896821      14.040807      14.167655      14.167683      14.040833      14.040877      14.167730      14.167808      14.040951      13.896955      13.896887      13.741623      13.741686      13.741791      13.897067      13.897248      13.741960      13.742230      13.742658      13.897987      13.897535      14.041568      14.042044      14.168962      14.168461      14.168139      14.041263      14.041070      14.167934      14.267825      14.324341      14.324560      14.268039      14.268376      14.268899      14.325441      14.324906      14.324204      14.267693      14.267611      14.324121      14.324069      14.267561      14.267531      14.324039      14.324004      14.267498      14.267495      14.324001      14.324020      14.324010      14.267504      14.267514      14.167638      14.167628      14.040782      14.040791      13.896806      13.741548      13.741540      13.896797      13.896792      13.741535      13.741532      13.896790      14.040773      14.040776      14.167623      14.167620      14.167618      14.167617      14.040771      14.040771      13.896789      13.741530      13.741530      13.896788      14.267492      14.267493      14.323999      14.323998         </DataArray>
      </CellData>
      <Points>
        <DataArray type="Float64" Name="Points" NumberOfComponents="3" format="ascii">
6300.000000 3000.000000 0.000000
6600.000000 3000.000000 0.000000
6600.000000 3300.000000 0.000000
6300.000000 3300.000000 0.000000
6300.000000 3000.000000 300.000000
6600.000000 3000.000000 300.000000
6600.000000 3300.000000 300.000000
6300.000000 3300.000000 300.000000
6000.000000 3000.000000 0.000000
6000.000000 3300.000000 0.000000
6000.000000 3000.000000 300.000000
6000.000000 3300.000000 300.000000
6300.000000 3600.000000 0.000000
6000.000000 3600.000000 0.000000
6300.000000 3600.000000 300.000000
6000.000000 3600.000000 300.000000
6600.000000 3600.000000 0.000000
6600.000000 3600.000000 300.000000
6900.000000 3300.000000 0.000000
6900.000000 3600.000000 0.000000
6900.000000 3300.000000 300.000000
6900.000000 3600.000000 300.000000
7200.000000 3300.000000 0.000000
7200.000000 3600.000000 0.000000
7200.000000 3300.000000 300.000000
7200.000000 3600.000000 300.000000
6900.000000 3000.000000 0.000000
7200.000000 3000.000000 0.000000
6900.000000 3000.000000 300.000000
7200.000000 3000.000000 300.000000
6600.000000 2700.000000 0.000000
6900.000000 2700.000000 0.000000
6600.000000 2700.000000 300.000000
6900.000000 2700.000000 300.000000
7200.000000 2700.000000 0.000000
7200.000000 2700.000000 300.000000
6900.000000 2400.000000 0.000000
7200.000000 2400.000000 0.000000
6900.000000 2400.000000 300.000000
7200.000000 2400.000000 300.000000
6600.000000 2400.000000 0.000000
6600.000000 2400.000000 300.000000
6300.000000 2400.000000 0.000000
6300.000000 2700.000000 0.000000
6300.000000 2400.000000 300.000000
6300.000000 2700.000000 300.000000
6000.000000 2700.000000 0.000000
6000.000000 2700.000000 300.000000
6000.000000 2400.000000 0.000000
6000.000000 2400.000000 300.000000
5700.000000 2400.000000 0.000000
5700.000000 2700.000000 0.000000
5700.000000 2400.000000 300.000000
5700.000000 2700.000000 300.000000
5700.000000 3000.000000 0.000000
5700.000000 3000.000000 300.000000
5400.000000 2700.000000 0.000000
5400.000000 3000.000000 0.000000
5400.000000 2700.000000 300.000000
5400.000000 3000.000000 300.000000
5400.000000 2400.000000 0.000000
5400.000000 2400.000000 300.000000
5100.000000 2400.000000 0.000000
5100.000000 2700.000000 0.000000
5100.000000 2400.000000 300.000000
5100.000000 2700.000000 300.000000
4800.000000 2400.000000 0.000000
4800.000000 2700.000000 0.000000
4800.000000 2400.000000 300.000000
4800.000000 2700.000000 300.000000
5100.000000 3000.000000 0.000000
4800.000000 3000.000000 0.000000
5100.000000 3000.000000 300.000000
4800.000000 3000.000000 300.000000
5400.000000 3300.000000 0.000000
5100.000000 3300.000000 0.000000
5400.000000 3300.000000 300.000000
5100.000000 3300.000000 300.000000
4800.000000 3300.000000 0.000000
4800.000000 3300.000000 300.000000
5100.000000 3600.000000 0.000000
4800.000000 3600.000000 0.000000
5100.000000 3600.000000 300.000000
4800.000000 3600.000000 300.000000
5400.000000 3600.000000 0.000000
5400.000000 3600.000000 300.000000
5700.000000 3300.000000 0.000000
5700.000000 3600.000000 0.000000
5700.000000 3300.000000 300.000000
5700.000000 3600.000000 300.000000
6000.000000 3900.000000 0.000000
5700.000000 3900.000000 0.000000
6000.000000 3900.000000 300.000000
5700.000000 3900.000000 300.000000
6000.000000 4200.000000 0.000000
5700.000000 4200.000000 0.000000
6000.000000 4200.000000 300.000000
5700.000000 4200.000000 300.000000
5400.000000 3900.000000 0.000000
5400.000000 4200.000000 0.000000
5400.000000 3900.000000 300.000000
5400.000000 4200.000000 300.000000
5100.000000 3900.000000 0.000000
5100.000000 3900.000000 300.000000
4800.000000 3900.000000 0.000000
4800.000000 3900.000000 300.000000
5100.000000 4200.000000 0.000000
4800.000000 4200.000000 0.000000
5100.000000 4200.000000 300.000000
4800.000000 4200.000000 300.000000
5400.000000 4500.000000 0.000000
5100.000000 4500.000000 0.000000
5400.000000 4500.000000 300.000000
5100.000000 4500.000000 300.000000
4800.000000 4500.000000 0.000000
4800.000000 4500.000000 300.000000
5100.000000 4800.000000 0.000000
4800.000000 4800.000000 0.000000
5100.000000 4800.000000 300.000000
4800.000000 4800.000000 300.000000
5400.000000 4800.000000 0.000000
5400.000000 4800.000000 300.000000
5700.000000 4500.000000 0.000000
5700.000000 4800.000000 0.000000
5700.000000 4500.000000 300.000000
5700.000000 4800.000000 300.000000
6000.000000 4500.000000 0.000000
6000.000000 4500.000000 300.000000
6000.000000 4800.000000 0.000000
6000.000000 4800.000000 300.000000
6300.000000 4500.000000 0.000000
6300.000000 4800.000000 0.000000
6300.000000 4500.000000 300.000000
6300.000000 4800.000000 300.000000
6600.000000 4500.000000 0.000000
6600.000000 4800.000000 0.000000
6600.000000 4500.000000 300.000000
6600.000000 4800.000000 300.000000
6300.000000 4200.000000 0.000000
6600.000000 4200.000000 0.000000
6300.000000 4200.000000 300.000000
6600.000000 4200.000000 300.000000
6300.000000 3900.000000 0.000000
6300.000000 3900.000000 300.000000
6600.000000 3900.000000 0.000000
6600.000000 3900.000000 300.000000
6900.000000 3900.000000 0.000000
6900.000000 4200.000000 0.000000
6900.000000 3900.000000 300.000000
6900.000000 4200.000000 300.000000
7200.000000 3900.000000 0.000000
7200.000000 3900.000000 300.000000
7200.000000 4200.000000 0.000000
7200.000000 4200.000000 300.000000
7200.000000 4500.000000 0.000000
6900.000000 4500.000000 0.000000
7200.000000 4500.000000 300.000000
6900.000000 4500.000000 300.000000
6900.000000 4800.000000 0.000000
6900.000000 4800.000000 300.000000
7200.000000 4800.000000 0.000000
7200.000000 4800.000000 300.000000
7500.000000 4500.000000 0.000000
7500.000000 4800.000000 0.000000
7500.000000 4500.000000 300.000000
7500.000000 4800.000000 300.000000
7800.000000 4500.000000 0.000000
7800.000000 4800.000000 0.000000
7800.000000 4500.000000 300.000000
7800.000000 4800.000000 300.000000
7500.000000 4200.000000 0.000000
7800.000000 4200.000000 0.000000
7500.000000 4200.000000 300.000000
7800.000000 4200.000000 300.000000
7500.000000 3900.000000 0.000000
7500.000000 3900.000000 300.000000
7500.000000 3600.000000 0.000000
7500.000000 3600.000000 300.000000
7800.000000 3600.000000 0.000000
7800.000000 3900.000000 0.000000
7800.000000 3600.000000 300.000000
7800.000000 3900.000000 300.000000
8100.000000 3900.000000 0.000000
8100.000000 4200.000000 0.000000
8100.000000 3900.000000 300.000000
8100.000000 4200.000000 300.000000
8100.000000 3600.000000 0.000000
8100.000000 3600.000000 300.000000
8400.000000 3600.000000 0.000000
8400.000000 3900.000000 0.000000
8400.000000 3600.000000 300.000000
8400.000000 3900.000000 300.000000
8400.000000 4200.000000 0.000000
8400.000000 4200.000000 300.000000
8400.000000 4500.000000 0.000000
8100.000000 4500.000000 0.000000
8400.000000 4500.000000 300.000000
8100.000000 4500.000000 300.000000
8100.000000 4800.000000 0.000000
8100.000000 4800.000000 300.000000
8400.000000 4800.000000 0.000000
8400.000000 4800.000000 300.000000
8700.000000 4500.000000 0.000000
8700.000000 4800.000000 0.000000
8700.000000 4500.000000 300.000000
8700.000000 4800.000000 300.000000
8700.000000 4200.000000 0.000000
8700.000000 4200.000000 300.000000
9000.000000 4200.000000 0.000000
9000.000000 4500.000000 0.000000
9000.000000 4200.000000 300.000000
9000.000000 4500.000000 300.000000
9000.000000 4800.000000 0.000000
9000.000000 4800.000000 300.000000
8700.000000 3600.000000 0.000000
9000.000000 3600.000000 0.000000
9000.000000 3900.000000 0.000000
8700.000000 3900.000000 0.000000
8700.000000 3600.000000 300.000000
9000.000000 3600.000000 300.000000
9000.000000 3900.000000 300.000000
8700.000000 3900.000000 300.000000
8700.000000 3000.000000 0.000000
9000.000000 3000.000000 0.000000
9000.000000 3300.000000 0.000000
8700.000000 3300.000000 0.000000
8700.000000 3000.000000 300.000000
9000.000000 3000.000000 300.000000
9000.000000 3300.000000 300.000000
8700.000000 3300.000000 300.000000
8400.000000 3000.000000 0.000000
8400.000000 3300.000000 0.000000
8400.000000 3000.000000 300.000000
8400.000000 3300.000000 300.000000
8700.000000 2400.000000 0.000000
9000.000000 2400.000000 0.000000
9000.000000 2700.000000 0.000000
8700.000000 2700.000000 0.000000
8700.000000 2400.000000 300.000000
9000.000000 2400.000000 300.000000
9000.000000 2700.000000 300.000000
8700.000000 2700.000000 300.000000
8400.000000 2700.000000 0.000000
8400.000000 2700.000000 300.000000
8400.000000 2400.000000 0.000000
8400.000000 2400.000000 300.000000
8100.000000 2400.000000 0.000000
8100.000000 2700.000000 0.000000
8100.000000 2400.000000 300.000000
8100.000000 2700.000000 300.000000
7800.000000 2400.000000 0.000000
7800.000000 2700.000000 0.000000
7800.000000 2400.000000 300.000000
7800.000000 2700.000000 300.000000
8100.000000 3000.000000 0.000000
7800.000000 3000.000000 0.000000
8100.000000 3000.000000 300.000000
7800.000000 3000.000000 300.000000
8100.000000 3300.000000 0.000000
8100.000000 3300.000000 300.000000
7800.000000 3300.000000 0.000000
7800.000000 3300.000000 300.000000
7500.000000 3300.000000 0.000000
7500.000000 3300.000000 300.000000
7500.000000 3000.000000 0.000000
7500.000000 3000.000000 300.000000
7500.000000 2700.000000 0.000000
7500.000000 2700.000000 300.000000
7500.000000 2400.000000 0.000000
7500.000000 2400.000000 300.000000
7200.000000 2100.000000 0.000000
7500.000000 2100.000000 0.000000
7200.000000 2100.000000 300.000000
7500.000000 2100.000000 300.000000
7800.000000 2100.000000 0.000000
7800.000000 2100.000000 300.000000
7500.000000 1800.000000 0.000000
7800.000000 1800.000000 0.000000
7500.000000 1800.000000 300.000000
7800.000000 1800.000000 300.000000
7200.000000 1800.000000 0.000000
7200.000000 1800.000000 300.000000
7200.000000 1500.000000 0.000000
7500.000000 1500.000000 0.000000
7200.000000 1500.000000 300.000000
7500.000000 1500.000000 300.000000
7200.000000 1200.000000 0.000000
7500.000000 1200.000000 0.000000
7200.000000 1200.000000 300.000000
7500.000000 1200.000000 300.000000
7800.000000 1200.000000 0.000000
7800.000000 1500.000000 0.000000
7800.000000 1200.000000 300.000000
7800.000000 1500.000000 300.000000
8100.000000 1500.000000 0.000000
8100.000000 1800.000000 0.000000
8100.000000 1500.000000 300.000000
8100.000000 1800.000000 300.000000
8100.000000 1200.000000 0.000000
8100.000000 1200.000000 300.000000
8400.000000 1200.000000 0.000000
8400.000000 1500.000000 0.000000
8400.000000 1200.000000 300.000000
8400.000000 1500.000000 300.000000
8400.000000 1800.000000 0.000000
8400.000000 1800.000000 300.000000
8400.000000 2100.000000 0.000000
8100.000000 2100.000000 0.000000
8400.000000 2100.000000 300.000000
8100.000000 2100.000000 300.000000
8700.000000 2100.000000 0.000000
8700.000000 2100.000000 300.000000
8700.000000 1800.000000 0.000000
8700.000000 1800.000000 300.000000
9000.000000 1800.000000 0.000000
9000.000000 2100.000000 0.000000
9000.000000 1800.000000 300.000000
9000.000000 2100.000000 300.000000
8700.000000 1200.000000 0.000000
9000.000000 1200.000000 0.000000
9000.000000 1500.000000 0.000000
8700.000000 1500.000000 0.000000
8700.000000 1200.000000 300.000000
9000.000000 1200.000000 300.000000
9000.000000 1500.000000 300.000000
8700.000000 1500.000000 300.000000
8700.000000 600.000000 0.000000
9000.000000 600.000000 0.000000
9000.000000 900.000000 0.000000
8700.000000 900.000000 0.000000
8700.000000 600.000000 300.000000
9000.000000 600.000000 300.000000
9000.000000 900.000000 300.000000
8700.000000 900.000000 300.000000
8400.000000 600.000000 0.000000
8400.000000 900.000000 0.000000
8400.000000 600.000000 300.000000
8400.000000 900.000000 300.000000
8700.000000 0.000000 0.000000
9000.000000 0.000000 0.000000
9000.000000 300.000000 0.000000
8700.000000 300.000000 0.000000
8700.000000 0.000000 300.000000
9000.000000 0.000000 300.000000
9000.000000 300.000000 300.000000
8700.000000 300.000000 300.000000
8400.000000 300.000000 0.000000
8400.000000 300.000000 300.000000
8400.000000 0.000000 0.000000
8400.000000 0.000000 300.000000
8100.000000 0.000000 0.000000
8100.000000 300.000000 0.000000
8100.000000 0.000000 300.000000
8100.000000 300.000000 300.000000
7800.000000 0.000000 0.000000
7800.000000 300.000000 0.000000
7800.000000 0.000000 300.000000
7800.000000 300.000000 300.000000
8100.000000 600.000000 0.000000
7800.000000 600.000000 0.000000
8100.000000 600.000000 300.000000
7800.000000 600.000000 300.000000
8100.000000 900.000000 0.000000
8100.000000 900.000000 300.000000
7800.000000 900.000000 0.000000
7800.000000 900.000000 300.000000
7500.000000 900.000000 0.000000
7500.000000 900.000000 300.000000
7500.000000 600.000000 0.000000
7500.000000 600.000000 300.000000
7200.000000 600.000000 0.000000
7200.000000 900.000000 0.000000
7200.000000 600.000000 300.000000
7200.000000 900.000000 300.000000
7200.000000 300.000000 0.000000
7500.000000 300.000000 0.000000
7200.000000 300.000000 300.000000
7500.000000 300.000000 300.000000
7500.000000 0.000000 0.000000
7500.000000 0.000000 300.000000
7200.000000 0.000000 0.000000
7200.000000 0.000000 300.000000
6900.000000 0.000000 0.000000
6900.000000 300.000000 0.000000
6900.000000 0.000000 300.000000
6900.000000 300.000000 300.000000
6900.000000 600.000000 0.000000
6900.000000 600.000000 300.000000
6600.000000 300.000000 0.000000
6600.000000 600.000000 0.000000
6600.000000 300.000000 300.000000
6600.000000 600.000000 300.000000
6600.000000 0.000000 0.000000
6600.000000 0.000000 300.000000
6300.000000 0.000000 0.000000
6300.000000 300.000000 0.000000
6300.000000 0.000000 300.000000
6300.000000 300.000000 300.000000
6000.000000 0.000000 0.000000
6000.000000 300.000000 0.000000
6000.000000 0.000000 300.000000
6000.000000 300.000000 300.000000
6300.000000 600.000000 0.000000
6000.000000 600.000000 0.000000
6300.000000 600.000000 300.000000
6000.000000 600.000000 300.000000
6600.000000 900.000000 0.000000
6300.000000 900.000000 0.000000
6600.000000 900.000000 300.000000
6300.000000 900.000000 300.000000
6000.000000 900.000000 0.000000
6000.000000 900.000000 300.000000
6300.000000 1200.000000 0.000000
6000.000000 1200.000000 0.000000
6300.000000 1200.000000 300.000000
6000.000000 1200.000000 300.000000
6600.000000 1200.000000 0.000000
6600.000000 1200.000000 300.000000
6900.000000 900.000000 0.000000
6900.000000 1200.000000 0.000000
6900.000000 900.000000 300.000000
6900.000000 1200.000000 300.000000
6600.000000 2100.000000 0.000000
6900.000000 2100.000000 0.000000
6600.000000 2100.000000 300.000000
6900.000000 2100.000000 300.000000
6900.000000 1800.000000 0.000000
6900.000000 1800.000000 300.000000
6600.000000 1800.000000 0.000000
6600.000000 1800.000000 300.000000
6600.000000 1500.000000 0.000000
6900.000000 1500.000000 0.000000
6600.000000 1500.000000 300.000000
6900.000000 1500.000000 300.000000
6300.000000 1500.000000 0.000000
6000.000000 1500.000000 0.000000
6300.000000 1500.000000 300.000000
6000.000000 1500.000000 300.000000
6300.000000 1800.000000 0.000000
6300.000000 1800.000000 300.000000
6000.000000 1800.000000 0.000000
6000.000000 1800.000000 300.000000
6300.000000 2100.000000 0.000000
6000.000000 2100.000000 0.000000
6300.000000 2100.000000 300.000000
6000.000000 2100.000000 300.000000
5400.000000 2100.000000 0.000000
5700.000000 2100.000000 0.000000
5400.000000 2100.000000 300.000000
5700.000000 2100.000000 300.000000
5700.000000 1800.000000 0.000000
5700.000000 1800.000000 300.000000
5400.000000 1800.000000 0.000000
5400.000000 1800.000000 300.000000
5400.000000 1500.000000 0.000000
5700.000000 1500.000000 0.000000
5400.000000 1500.000000 300.000000
5700.000000 1500.000000 300.000000
5700.000000 1200.000000 0.000000
5700.000000 1200.000000 300.000000
5400.000000 1200.000000 0.000000
5400.000000 1200.000000 300.000000
4800.000000 1200.000000 0.000000
5100.000000 1200.000000 0.000000
5100.000000 1500.000000 0.000000
4800.000000 1500.000000 0.000000
4800.000000 1200.000000 300.000000
5100.000000 1200.000000 300.000000
5100.000000 1500.000000 300.000000
4800.000000 1500.000000 300.000000
5100.000000 1800.000000 0.000000
5100.000000 1800.000000 300.000000
4800.000000 1800.000000 0.000000
4800.000000 1800.000000 300.000000
5100.000000 2100.000000 0.000000
4800.000000 2100.000000 0.000000
5100.000000 2100.000000 300.000000
4800.000000 2100.000000 300.000000
5100.000000 600.000000 0.000000
5400.000000 600.000000 0.000000
5400.000000 900.000000 0.000000
5100.000000 900.000000 0.000000
5100.000000 600.000000 300.000000
5400.000000 600.000000 300.000000