<VTKFile type="UnstructuredGrid" version="1.0" byte_order="LittleEndian" header_type="UInt64">
  <UnstructuredGrid>
    <Piece NumberOfPoints="1908" NumberOfCells="892">
      <CellData Scalars="Scalars_">
        <DataArray type="Float32" Name="Scalars_" format="ascii">
     11.457512      11.250834      11.245999      11.452655      11.654032      11.849229      11.854116      11.658906      11.665395      11.860562      11.868771      11.673733      11.472508      11.464040      11.257395      11.265991      11.054688      11.045969      10.830027      10.838863      10.618633      10.394032      10.384978      10.609686      10.603070      10.378361      10.373677      10.598341      10.818650      10.823421      11.039382      11.034576      11.031173      11.028826      10.813014      10.815304      10.595054      10.370451      10.368278      10.592822      10.591337      10.366840      10.365904      10.590365      10.810472      10.811481      11.027243      11.026195      11.237418      11.443878      11.445007      11.238506      11.240140      11.242544      11.449151      11.446692      11.647970      11.650482      11.845638      11.843075      11.841290      11.646236      11.645065      11.840077      12.027383      12.204450      12.205750      12.028639      12.030473      12.033087      12.210297      12.207633      12.370432      12.373146      12.514990      12.512225      12.510243      12.368499      12.367156      12.508859      12.618925      12.620347      12.681952      12.680506      12.686851      12.625185      12.622373      12.684007      12.695684      12.633960      12.628983      12.690681      12.709750      12.702016      12.640278      12.648024      12.537797      12.395980      12.388115      12.530007      12.518744      12.523691      12.381782      12.376857      12.213966      12.218877      12.041615      12.036717      12.048018      12.225241      12.233207      12.056101      12.065919      12.242805      12.253884      12.077342      12.089990      12.103194      12.278692      12.266063      12.427920      12.440035      12.580646      12.568971      12.557565      12.416159      12.405384      12.547043      12.657162      12.667498      12.729087      12.718843      12.751214      12.689966      12.678636      12.740079      12.770683      12.709904      12.700694      12.761710      12.780751      12.777264      12.716681      12.720283      12.612221      12.473165      12.469174      12.608443      12.591763      12.601355      12.461704      12.451640      12.290862      12.301472      12.127221      12.115998      12.135621      12.309379      12.313614      12.140133      11.956800      11.951979      11.760965      11.766133      11.569666      11.368325      11.362336      11.564112      11.553869      11.351333      11.336924      11.540380      11.738747      11.931125      11.943029      11.751404      11.684039      11.878827      11.890621      11.696232      11.709945      11.903782      11.917621      11.724473      11.320887      11.525264      11.509990      11.304807      11.289871      11.495685      11.483074      11.276822      10.850232      11.065787      11.079293      10.864215      10.880534      11.094899      11.111852      10.898431      10.458891      10.680758      10.661834      10.438842      10.420944      10.644753      10.630275      10.405948      10.717980      10.498915      10.479637      10.700141      10.916587      11.128898      11.144327      10.933153      10.945965      11.156180      11.162661      10.953001      10.739552      10.731878      10.514055      10.522464      10.301895      10.292625      10.067770      10.078060      9.851299      9.622162      9.609116      9.839776      9.819503      9.586392      9.558696      9.794469      10.026696      10.255132      10.276048      10.049507      9.944140      10.177242      10.192784      9.960263      9.980008      10.211565      10.232853      10.002679      9.530312      9.768444      9.744208      9.504272      9.482257      9.723396      9.706645      9.464816      8.968893      9.218801      9.237016      8.987987      9.012998      9.260411      9.288576      9.043722      8.547916      8.796488      8.762613      8.510109      8.480937      8.735692      8.715596      8.459724      8.876182      8.640784      8.592976      8.835691      9.078457      9.319800      9.350764      9.113551      9.143292      9.376553      9.391532      9.160806      8.932161      8.911206      8.683133      8.708938      8.496166      8.301176      8.258214      8.463337      8.352297      8.410460      8.189707      8.116053      7.886398      7.985319      7.809366      7.662355      7.935393      8.077570      8.133986      8.007198      7.936123      7.850657      6.597224      6.703665      6.867857      7.103925      7.685325      7.429557      7.322092      7.267480      7.044064      7.071439      6.868018      6.742804      6.753706      6.862068      6.853938      6.753444      6.749501      6.846191      7.010890      7.024483      7.235951      7.216519      7.447330      7.470095      7.716483      7.692726      7.945914      8.202532      8.224903      7.969281      8.003668      8.256639      8.299349      8.052274      7.807824      7.565662      7.506497      7.752934      7.661016      7.417740      7.413928      7.656904      7.909242      8.165960      8.170346      7.913536      7.920177      8.177070      8.187270      7.930377      7.677345      7.667415      7.423669      7.432899      7.204142      7.196133      6.995119      7.001528      6.839802      6.744989      6.741049      6.834921      6.831363      6.737972      6.735711      6.828854      6.987839      6.990767      7.190919      7.187521      7.185312      7.183883      6.984602      6.985889      6.827126      6.734113      6.733015      6.825959      6.825183      6.732276      6.731787      6.824674      6.983216      6.983761      7.182962      7.182374      7.408280      7.650845      7.651520      7.408914      7.409914      7.411480      7.654269      7.652588      7.904716      7.906481      8.163124      8.161303      8.160142      7.903594      7.902885      8.159407      8.417015      8.417771      8.674240      8.673467      8.927320      9.177689      9.178494      8.928110      8.929344      9.179751      9.181692      8.931256      8.677339      8.420819      8.418961      8.675452      8.423699      8.680247      8.684683      8.428122      8.434841      8.444911      8.701263      8.691365      8.945281      8.955012      9.205326      9.195741      9.189124      8.938637      8.934190      9.184657      9.431140      9.673366      9.677903      9.435637      9.442243      9.451702      9.693858      9.684507      9.922405      9.931655      10.165046      10.155893      10.149278      9.915796      9.911212      10.144644      9.906041      10.139362      10.141479      9.908106      9.670315      9.428137      9.426161      9.668298      9.666982      9.424877      9.424051      9.666134      9.903814      9.904689      10.137969      10.137065      10.136485      10.136116      9.902900      9.903255      9.665591      9.423525      9.423192      9.665248      9.665032      9.422983      9.422853      9.664898      9.902535      10.135738      10.135883      9.902676      9.902343      10.135537      10.135557      9.902363      9.902395      10.135592      10.135648      9.902450      9.422772      9.664814      9.664762      9.422723      9.422692      9.664731      9.664712      9.422673      8.926018      9.176350      9.176368      8.926035      8.926063      9.176396      9.176445      8.926109      8.415867      8.672286      8.672241      8.415823      8.415797      8.672215      8.672197      8.415781      8.672479      8.416053      8.415937      8.672359      8.926185      9.176523      9.176649      8.926308      8.926505      9.176852      9.177176      8.926820      8.672978      8.672670      8.416239      8.416538      8.158943      7.902440      7.902161      8.158654      8.158362      8.158474      7.901988      7.901881      7.649887      7.649989      7.407471      7.407374      7.407628      7.650155      7.650420      7.407880      7.181999      7.181763      6.982644      6.982866      6.824344      6.731467      6.731261      6.824131      6.823997      6.731130      6.731047      6.823912      6.982415      6.982503      7.181614      7.181521      7.181464      7.181429      6.982326      6.982359      6.823859      6.730995      6.730962      6.823826      6.823806      6.730942      6.730930      6.823793      6.982292      6.982305      7.181407      7.181394      7.407240      7.407254      7.649762      7.649747      7.901735      8.158211      8.158227      7.901750      7.901775      8.158252      8.158294      7.901815      7.649824      7.407313      7.407277      7.649785      7.649730      7.407224      7.407222      7.649729      7.901716      8.158191      8.158193      7.901718      7.901721      8.158196      8.158202      7.901726      7.649739      7.649734      7.407227      7.407232      7.181386      7.181381      6.982280      6.982285      6.823786      6.730923      6.730918      6.823781      6.823779      6.730916      6.730914      6.823777      6.982275      6.982277      7.181378      7.181377      7.181376      7.181376      6.982274      6.982275      6.823776      6.730913      6.730913      6.823776      7.407221      7.407221      7.649728      7.649727      7.901715      7.901715      8.158190      8.158190      8.925994      9.176325      9.176326      8.925994      8.672175      8.415759      8.415758      8.672174      8.415760      8.672176      8.672178      8.415762      8.415766      8.415771      8.672188      8.672182      8.926001      8.926007      9.176339      9.176332      9.176329      8.925998      8.925995      9.176327      9.422649      9.664687      9.664689      9.422652      9.422656      9.422663      9.664701      9.664694      9.902324      9.902331      10.135524      10.135516      10.135512      9.902319      9.902317      10.135509      9.902315      10.135508      10.135509      9.902315      9.664686      9.422648      9.422647      9.664685      10.364282      10.364283      10.588673      10.588673      10.808700      10.808701      11.024340      11.024339      11.642921      11.837828      11.837829      11.642922      11.441836      11.441836      11.235472      11.235473      11.235475      11.235478      11.441842      11.441838      11.642924      11.837831      11.837835      11.642928      11.642935      11.837842      11.837853      11.642946      11.441859      11.441849      11.235484      11.235494      11.024359      11.024350      10.808711      10.808720      10.588691      10.364299      10.364291      10.588682      10.588677      10.364286      10.364284      10.588675      10.808702      11.024341      11.024344      10.808705      10.588727      10.364334      10.364312      10.588704      10.808734      11.024374      11.024400      10.808758      10.808798      11.024442      11.024509      10.808862      10.588826      10.588765      10.364370      10.364429      10.364523      10.588925      10.589084      10.364675      10.364917      10.365301      10.589738      10.589337      10.809399      10.809817      11.025512      11.025073      11.024795      10.809133      10.808966      11.024619      11.235768      11.442149      11.442344      11.235953      11.236246      11.236706      11.443134      11.442653      11.643784      11.644289      11.839268      11.838738      11.838397      11.643459      11.643253      11.838180      11.838043      11.837957      11.643044      11.643125      11.442027      11.235653      11.235581      11.441952      11.441905      11.235537      11.235510      11.441876      11.642964      11.837873      11.837905      11.642995      12.202066      12.025107      12.025073      12.202031      12.364626      12.506222      12.506262      12.364664      12.364726      12.506328      12.506433      12.364826      12.202221      12.202126      12.025163      12.025252      12.025397      12.202374      12.202616      12.025626      12.025986      12.026540      12.203573      12.202992      12.365638      12.366244      12.507914      12.507282      12.506868      12.365242      12.364987      12.506602      12.616590      12.678125      12.678408      12.616868      12.617297      12.617950      12.679513      12.678846      12.677946      12.616415      12.616305      12.677834      12.677764      12.616238      12.616197      12.677722      12.677671      12.616147      12.616142      12.677667      12.677696      12.677681      12.616157      12.616171      12.506198      12.506184      12.364589      12.364603      12.202009      12.025052      12.025040      12.201996      12.201988      12.025032      12.025028      12.201983      12.364576      12.364581      12.506175      12.506170      12.506167      12.506166      12.364573      12.364573      12.201981      12.025026      12.025024      12.201980      12.616138      12.616139      12.677664      12.677663         </DataArray>
      </CellData>
      <Points>
        <DataArray type="Float64" Name="Points" NumberOfComponents="3" format="ascii">
6300.000000 3000.000000 0.000000
6600.000000 3000.000000 0.000000
6600.000000 3300.000000 0.000000
6300.000000 3300.000000 0.000000
6300.000000 3000.000000 300.000000
6600.000000 3000.000000 300.000000
6600.000000 3300.000000 300.000000
6300.000000 3300.000000 300.000000
6000.000000 3000.000000 0.000000
6000.000000 3300.000000 0.000000
6000.000000 3000.000000 300.000000
6000.000000 3300.000000 300.000000
6300.000000 3600.000000 0.000000
6000.000000 3600.000000 0.000000
6300.000000 3600.000000 300.000000
6000.000000 3600.000000 300.000000
6600.000000 3600.000000 0.000000
6600.000000 3600.000000 300.000000
6900.000000 3300.000000 0.000000
6900.000000 3600.000000 0.000000
6900.000000 3300.000000 300.000000
6900.000000 3600.000000 300.000000
7200.000000 3300.000000 0.000000
7200.000000 3600.000000 0.000000
7200.000000 3300.000000 300.000000
7200.000000 3600.000000 300.000000
6900.000000 3000.000000 0.000000
7200.000000 3000.000000 0.000000
6900.000000 3000.000000 300.000000
7200.000000 3000.000000 300.000000
6600.000000 2700.000000 0.000000
6900.000000 2700.000000 0.000000
6600.000000 2700.000000 300.000000
6900.000000 2700.000000 300.000000
7200.000000 2700.000000 0.000000
7200.000000 2700.000000 300.000000
6900.000000 2400.000000 0.000000
7200.000000 2400.000000 0.000000
6900.000000 2400.000000 300.000000
7200.000000 2400.000000 300.000000
6600.000000 2400.000000 0.000000
6600.000000 2400.000000 300.000000
6300.000000 2400.000000 0.000000
6300.000000 2700.000000 0.000000
6300.000000 2400.000000 300.000000
6300.000000 2700.000000 300.000000
6000.000000 2700.000000 0.000000
6000.000000 2700.000000 300.000000
6000.000000 2400.000000 0.000000
6000.000000 2400.000000 300.000000
5700.000000 2400.000000 0.000000
5700.000000 2700.000000 0.000000
5700.000000 2400.000000 300.000000
5700.000000 2700.000000 300.000000
5700.000000 3000.000000 0.000000
5700.000000 3000.000000 300.000000
5400.000000 2700.000000 0.000000
5400.000000 3000.000000 0.000000
5400.000000 2700.000000 300.000000
5400.000000 3000.000000 300.000000
5400.000000 2400.000000 0.000000
5400.000000 2400.000000 300.000000
5100.000000 2400.000000 0.000000
5100.000000 2700.000000 0.000000
5100.000000 2400.000000 300.000000
5100.000000 2700.000000 300.000000
4800.000000 2400.000000 0.000000
4800.000000 2700.000000 0.000000
4800.000000 2400.000000 300.000000
4800.000000 2700.000000 300.000000
5100.000000 3000.000000 0.000000
4800.000000 3000.000000 0.000000
5100.000000 3000.000000 300.000000
4800.000000 3000.000000 300.000000
5400.000000 3300.000000 0.000000
5100.000000 3300.000000 0.000000
5400.000000 3300.000000 300.000000
5100.000000 3300.000000 300.000000
4800.000000 3300.000000 0.000000
4800.000000 3300.000000 300.000000
5100.000000 3600.000000 0.000000
4800.000000 3600.000000 0.000000
5100.000000 3600.000000 300.000000
4800.000000 3600.000000 300.000000
5400.000000 3600.000000 0.000000
5400.000000 3600.000000 300.000000
5700.000000 3300.000000 0.000000
5700.000000 3600.000000 0.000000
5700.000000 3300.000000 300.000000
5700.000000 3600.000000 300.000000
6000.000000 3900.000000 0.000000
5700.000000 3900.000000 0.000000
6000.000000 3900.000000 300.000000
5700.000000 3900.000000 300.000000
6000.000000 4200.000000 0.000000
5700.000000 4200.000000 0.000000
6000.000000 4200.000000 300.000000
5700.000000 4200.000000 300.000000
5400.000000 3900.000000 0.000000
5400.000000 4200.000000 0.000000
5400.000000 3900.000000 300.000000
5400.000000 4200.000000 300.000000
5100.000000 3900.000000 0.000000
5100.000000 3900.000000 300.000000
4800.000000 3900.000000 0.000000
4800.000000 3900.000000 300.000000
5100.000000 4200.000000 0.000000
4800.000000 4200.000000 0.000000
5100.000000 4200.000000 300.000000
4800.000000 4200.000000 300.000000
5400.000000 4500.000000 0.000000
5100.000000 4500.000000 0.000000
5400.000000 4500.000000 300.000000
5100.000000 4500.000000 300.000000
4800.000000 4500.000000 0.000000
4800.000000 4500.000000 300.000000
5100.000000 4800.000000 0.000000
4800.000000 4800.000000 0.000000
5100.000000 4800.000000 300.000000
4800.000000 4800.000000 300.000000
5400.000000 4800.000000 0.000000
5400.000000 4800.000000 300.000000
5700.000000 4500.000000 0.000000
5700.000000 4800.000000 0.000000
5700.000000 4500.000000 300.000000
5700.000000 4800.000000 300.000000
6000.000000 4500.000000 0.000000
6000.000000 4500.000000 300.000000
6000.000000 4800.000000 0.000000
6000.000000 4800.000000 300.000000
6300.000000 4500.000000 0.000000
6300.000000 4800.000000 0.000000
6300.000000 4500.000000 300.000000
6300.000000 4800.000000 300.000000
6600.000000 4500.000000 0.000000
6600.000000 4800.000000 0.000000
6600.000000 4500.000000 300.000000
6600.000000 4800.000000 300.000000
6300.000000 4200.000000 0.000000
6600.000000 4200.000000 0.000000
6300.000000 4200.000000 300.000000
6600.000000 4200.000000 300.000000
6300.000000 3900.000000 0.000000
6300.000000 3900.000000 300.000000
6600.000000 3900.000000 0.000000
6600.000000 3900.000000 300.000000
6900.000000 3900.000000 0.000000
6900.000000 4200.000000 0.000000
6900.000000 3900.000000 300.000000
6900.000000 4200.000000 300.000000
7200.000000 3900.000000 0.000000
7200.000000 3900.000000 300.000000
7200.000000 4200.000000 0.000000
7200.000000 4200.000000 300.000000
7200.000000 4500.000000 0.000000
6900.000000 4500.000000 0.000000
7200.000000 4500.000000 300.000000
6900.000000 4500.000000 300.000000
6900.000000 4800.000000 0.000000
6900.000000 4800.000000 300.000000
7200.000000 4800.000000 0.000000
7200.000000 4800.000000 300.000000
7500.000000 4500.000000 0.000000
7500.000000 4800.000000 0.000000
7500.000000 4500.000000 300.000000
7500.000000 4800.000000 300.000000
7800.000000 4500.000000 0.000000
7800.000000 4800.000000 0.000000
7800.000000 4500.000000 300.000000
7800.000000 4800.000000 300.000000
7500.000000 4200.000000 0.000000
7800.000000 4200.000000 0.000000
7500.000000 4200.000000 300.000000
7800.000000 4200.000000 300.000000
7500.000000 3900.000000 0.000000
7500.000000 3900.000000 300.000000
7500.000000 3600.000000 0.000000
7500.000000 3600.000000 300.000000
7800.000000 3600.000000 0.000000
7800.000000 3900.000000 0.000000
7800.000000 3600.000000 300.000000
7800.000000 3900.000000 300.000000
8100.000000 3900.000000 0.000000
8100.000000 4200.000000 0.000000
8100.000000 3900.000000 300.000000
8100.000000 4200.000000 300.000000
8100.000000 3600.000000 0.000000
8100.000000 3600.000000 300.000000
8400.000000 3600.000000 0.000000
8400.000000 3900.000000 0.000000
8400.000000 3600.000000 300.000000
8400.000000 3900.000000 300.000000
8400.000000 4200.000000 0.000000
8400.000000 4200.000000 300.000000
8400.000000 4500.000000 0.000000
8100.000000 4500.000000 0.000000
8400.000000 4500.000000 300.000000
8100.000000 4500.000000 300.000000
8100.000000 4800.000000 0.000000
8100.000000 4800.000000 300.000000
8400.000000 4800.000000 0.000000
8400.000000 4800.000000 300.000000
8700.000000 4500.000000 0.000000
8700.000000 4800.000000 0.000000
8700.000000 4500.000000 300.000000
8700.000000 4800.000000 300.000000
8700.000000 4200.000000 0.000000
8700.000000 4200.000000 300.000000
9000.000000 4200.000000 0.000000
9000.000000 4500.000000 0.000000
9000.000000 4200.000000 300.000000
9000.000000 4500.000000 300.000000
9000.000000 4800.000000 0.000000
9000.000000 4800.000000 300.000000
8700.000000 3600.000000 0.000000
9000.000000 3600.000000 0.000000
9000.000000 3900.000000 0.000000
8700.000000 3900.000000 0.000000
8700.000000 3600.000000 300.000000
9000.000000 3600.000000 300.000000
9000.000000 3900.000000 300.000000
8700.000000 3900.000000 300.000000
8700.000000 3000.000000 0.000000
9000.000000 3000.000000 0.000000
9000.000000 3300.000000 0.000000
8700.000000 3300.000000 0.000000
8700.000000 3000.000000 300.000000
9000.000000 3000.000000 300.000000
9000.000000 3300.000000 300.000000
8700.000000 3300.000000 300.000000
8400.000000 3000.000000 0.000000
8400.000000 3300.000000 0.000000
8400.000000 3000.000000 300.000000
8400.000000 3300.000000 300.000000
8700.000000 2400.000000 0.000000
9000.000000 2400.000000 0.000000
9000.000000 2700.000000 0.000000
8700.000000 2700.000000 0.000000
8700.000000 2400.000000 300.000000
9000.000000 2400.000000 300.000000
9000.000000 2700.000000 300.000000
8700.000000 2700.000000 300.000000
8400.000000 2700.000000 0.000000
8400.000000 2700.000000 300.000000
8400.000000 2400.000000 0.000000
8400.000000 2400.000000 300.000000
8100.000000 2400.000000 0.000000
8100.000000 2700.000000 0.000000
8100.000000 2400.000000 300.000000
8100.000000 2700.000000 300.000000
7800.000000 2400.000000 0.000000
7800.000000 2700.000000 0.000000
7800.000000 2400.000000 300.000000
7800.000000 2700.000000 300.000000
8100.000000 3000.000000 0.000000
7800.000000 3000.000000 0.000000
8100.000000 3000.000000 300.000000
7800.000000 3000.000000 300.000000
8100.000000 3300.000000 0.000000
8100.000000 3300.000000 300.000000
7800.000000 3300.000000 0.000000
7800.000000 3300.000000 300.000000
7500.000000 3300.000000 0.000000
7500.000000 3300.000000 300.000000
7500.000000 3000.000000 0.000000
7500.000000 3000.000000 300.000000
7500.000000 2700.000000 0.000000
7500.000000 2700.000000 300.000000
7500.000000 2400.000000 0.000000
7500.000000 2400.000000 300.000000
7200.000000 2100.000000 0.000000
7500.000000 2100.000000 0.000000
7200.000000 2100.000000 300.000000
7500.000000 2100.000000 300.000000
7800.000000 2100.000000 0.000000
7800.000000 2100.000000 300.000000
7500.000000 1800.000000 0.000000
7800.000000 1800.000000 0.000000
7500.000000 1800.000000 300.000000
7800.000000 1800.000000 300.000000
7200.000000 1800.000000 0.000000
7200.000000 1800.000000 300.000000
7200.000000 1500.000000 0.000000
7500.000000 1500.000000 0.000000
7200.000000 1500.000000 300.000000
7500.000000 1500.000000 300.000000
7200.000000 1200.000000 0.000000
7500.000000 1200.000000 0.000000
7200.000000 1200.000000 300.000000
7500.000000 1200.000000 300.000000
7800.000000 1200.000000 0.000000
7800.000000 1500.000000 0.000000
7800.000000 1200.000000 300.000000
7800.000000 1500.000000 300.000000
8100.000000 1500.000000 0.000000
8100.000000 1800.000000 0.000000
8100.000000 1500.000000 300.000000
8100.000000 1800.000000 300.000000
8100.000000 1200.000000 0.000000
8100.000000 1200.000000 300.000000
8400.000000 1200.000000 0.000000
8400.000000 1500.000000 0.000000
8400.000000 1200.000000 300.000000
8400.000000 1500.000000 300.000000
8400.000000 1800.000000 0.000000
8400.000000 1800.000000 300.000000
8400.000000 2100.000000 0.000000
8100.000000 2100.000000 0.000000
8400.000000 2100.000000 300.000000
8100.000000 2100.000000 300.000000
8700.000000 2100.000000 0.000000
8700.000000 2100.000000 300.000000
8700.000000 1800.000000 0.000000
8700.000000 1800.000000 300.000000
9000.000000 1800.000000 0.000000
9000.000000 2100.000000 0.000000
9000.000000 1800.000000 300.000000
9000.000000 2100.000000 300.000000
8700.000000 1200.000000 0.000000
9000.000000 1200.000000 0.000000
9000.000000 1500.000000 0.000000
8700.000000 1500.000000 0.000000
8700.000000 1200.000000 300.000000
9000.000000 1200.000000 300.000000
9000.000000 1500.000000 300.000000
8700.000000 1500.000000 300.000000
8700.000000 600.000000 0.000000
9000.000000 600.000000 0.000000
9000.000000 900.000000 0.000000
8700.000000 900.000000 0.000000
8700.000000 600.000000 300.000000
9000.000000 600.000000 300.000000
9000.000000 900.000000 300.000000
8700.000000 900.000000 300.000000
8400.000000 600.000000 0.000000
8400.000000 900.000000 0.000000
8400.000000 600.000000 300.000000
8400.000000 900.000000 300.000000
8700.000000 0.000000 0.000000
9000.000000 0.000000 0.000000
9000.000000 300.000000 0.000000
8700.000000 300.000000 0.000000
8700.000000 0.000000 300.000000
9000.000000 0.000000 300.000000
9000.000000 300.000000 300.000000
8700.000000 300.000000 300.000000
8400.000000 300.000000 0.000000
8400.000000 300.000000 300.000000
8400.000000 0.000000 0.000000
8400.000000 0.000000 300.000000
8100.000000 0.000000 0.000000
8100.000000 300.000000 0.000000
8100.000000 0.000000 300.000000
8100.000000 300.000000 300.000000
7800.000000 0.000000 0.000000
7800.000000 300.000000 0.000000
7800.000000 0.000000 300.000000
7800.000000 300.000000 300.000000
8100.000000 600.000000 0.000000
7800.000000 600.000000 0.000000
8100.000000 600.000000 300.000000
7800.000000 600.000000 300.000000
8100.000000 900.000000 0.000000
8100.000000 900.000000 300.000000
7800.000000 900.000000 0.000000
7800.000000 900.000000 300.000000
7500.000000 900.000000 0.000000
7500.000000 900.000000 300.000000
7500.000000 600.000000 0.000000
7500.000000 600.000000 300.000000
7200.000000 600.000000 0.000000
7200.000000 900.000000 0.000000
7200.000000 600.000000 300.000000
7200.000000 900.000000 300.000000
7200.000000 300.000000 0.000000
7500.000000 300.000000 0.000000
7200.000000 300.000000 300.000000
7500.000000 300.000000 300.000000
7500.000000 0.000000 0.000000
7500.000000 0.000000 300.000000
7200.000000 0.000000 0.000000
7200.000000 0.000000 300.000000
6900.000000 0.000000 0.000000
6900.000000 300.000000 0.000000
6900.000000 0.000000 300.000000
6900.000000 300.000000 300.000000
6900.000000 600.000000 0.000000
6900.000000 600.000000 300.000000
6600.000000 300.000000 0.000000
6600.000000 600.000000 0.000000
6600.000000 300.000000 300.000000
6600.000000 600.000000 300.000000
6600.000000 0.000000 0.000000
6600.000000 0.000000 300.000000
6300.000000 0.000000 0.000000
6300.000000 300.000000 0.000000
6300.000000 0.000000 300.000000
6300.000000 300.000000 300.000000
6000.000000 0.000000 0.000000
6000.000000 300.000000 0.000000
6000.000000 0.000000 300.000000
6000.000000 300.000000 300.000000
6300.000000 600.000000 0.000000
6000.000000 600.000000 0.000000
6300.000000 600.000000 300.000000
6000.000000 600.000000 300.000000
6600.000000 900.000000 0.000000
6300.000000 900.000000 0.000000
6600.000000 900.000000 300.000000
6300.000000 900.000000 300.000000
6000.000000 900.000000 0.000000
6000.000000 900.000000 300.000000
6300.000000 1200.000000 0.000000
6000.000000 1200.000000 0.000000
6300.000000 1200.000000 300.000000
6000.000000 1200.000000 300.000000
6600.000000 1200.000000 0.000000
6600.000000 1200.000000 300.000000
6900.000000 900.000000 0.000000
6900.000000 1200.000000 0.000000
6900.000000 900.000000 300.000000
6900.000000 1200.000000 300.000000
6600.000000 2100.000000 0.000000
6900.000000 2100.000000 0.000000
6600.000000 2100.000000 300.000000
6900.000000 2100.000000 300.000000
6900.000000 1800.000000 0.000000
6900.000000 1800.000000 300.000000
6600.000000 1800.000000 0.000000
6600.000000 1800.000000 300.000000
6600.000000 1500.000000 0.000000
6900.000000 1500.000000 0.000000
6600.000000 1500.000000 300.000000
6900.000000 1500.000000 300.000000
6300.000000 1500.000000 0.000000
6000.000000 1500.000000 0.000000
6300.000000 1500.000000 300.000000
6000.000000 1500.000000 300.000000
6300.000000 1800.000000 0.000000
6300.000000 1800.000000 300.000000
6000.000000 1800.000000 0.000000
6000.000000 1800.000000 300.000000
6300.000000 2100.000000 0.000000
6000.000000 2100.000000 0.000000
6300.000000 2100.000000 300.000000
6000.000000 2100.000000 300.000000
5400.000000 2100.000000 0.000000
5700.000000 2100.000000 0.000000
5400.000000 2100.000000 300.000000
5700.000000 2100.000000 300.000000
5700.000000 1800.000000 0.000000
5700.000000 1800.000000 300.000000
5400.000000 1800.000000 0.000000
5400.000000 1800.000000 300.000000
5400.000000 1500.000000 0.000000
5700.000000 1500.000000 0.000000
5400.000000 1500.000000 300.000000
5700.000000 1500.000000 300.000000
5700.000000 1200.000000 0.000000
5700.000000 1200.000000 300.000000
5400.000000 1200.000000 0.000000
5400.000000 1200.000000 300.000000
4800.000000 1200.000000 0.000000
5100.000000 1200.000000 0.000000
5100.000000 1500.000000 0.000000
4800.000000 1500.000000 0.000000
4800.000000 1200.000000 300.000000
5100.000000 1200.000000 300.000000
5100.000000 1500.000000 300.000000
4800.000000 1500.000000 300.000000
5100.000000 1800.000000 0.000000
5100.000000 1800.000000 300.000000
4800.000000 1800.000000 0.000000
4800.000000 1800.000000 300.000000
5100.000000 2100.000000 0.000000
4800.000000 2100.000000 0.000000
5100.000000 2100.000000 300.000000
4800.000000 2100.000000 300.000000
5100.000000 600.000000 0.000000
5400.000000 600.000000 0.000000
5400.000000 900.000000 0.000000
5100.000000 900.000000 0.000000
5100.000000 600.000000 300.000000
5400.000000 600.000000 300.000000
5400.000000 900.000000 300.000000
5100.000000 900.000000 300.000000
4800.000000 600.000000 0.000000
4800.000000 900.000000 0.000000
4800.000000 600.000000 300.000000
4800.000000 900.000000 300.000000
5700.000000 900.000000 0.000000
5700.000000 900.000000 300.000000
5700.000000 600.000000 0.000000