<VTKFile type="UnstructuredGrid" version="1.0" byte_order="LittleEndian" header_type="UInt64">
  <UnstructuredGrid>
    <Piece NumberOfPoints="1908" NumberOfCells="892">
      <CellData Scalars="Scalars_">
        <DataArray type="Float32" Name="Scalars_" format="ascii">
     21.456476      21.360058      21.358267      21.454609      21.550354      21.645399      21.647404      21.552294      21.555058      21.650217      21.654009      21.558830      21.462923      21.459179      21.362690      21.366396      21.269285      21.265631      21.168016      21.171606      21.073353      20.974518      20.971111      21.069845      21.067488      20.968870      20.967461      21.065973      21.163942      21.165556      21.263079      21.261375      21.260283      21.259607      21.162315      21.162930      21.065041      20.966610      20.966116      21.064486      21.064169      20.965836      20.965683      21.063992      21.161753      21.161955      21.259207      21.258974      21.355659      21.451794      21.452085      21.355921      21.356365      21.357100      21.453367      21.452576      21.548195      21.549046      21.644024      21.643118      21.642538      21.547661      21.547337      21.642181      21.736074      21.828430      21.828856      21.736464      21.737087      21.738050      21.830544      21.829525      21.919109      21.920181      22.003979      22.002851      22.002092      21.918394      21.917933      22.001595      22.072594      22.073126      22.116072      22.115517      22.118116      22.075106      22.073929      22.116905      22.122139      22.079054      22.076773      22.119822      22.129021      22.125181      22.082064      22.085890      22.014606      21.930656      21.926847      22.010792      22.005590      22.007820      21.923912      21.921736      21.832039      21.834160      21.741552      21.739487      21.744411      21.837059      21.840864      21.748213      21.753056      21.845659      21.851427      21.758947      21.765747      21.773129      21.865110      21.858021      21.947445      21.954262      22.037619      22.031059      22.024847      21.941050      21.935400      22.019306      22.090559      22.096012      22.139082      22.133678      22.151241      22.108404      22.102066      22.145044      22.162447      22.119968      22.114563      22.157225      22.168425      22.166340      22.124020      22.126196      22.056332      21.974007      21.971544      22.054020      22.044048      22.049734      21.966995      21.960997      21.872175      21.878513      21.787247      21.780542      21.792387      21.883345      21.885971      21.795193      21.702986      21.699984      21.606720      21.609940      21.516321      21.422253      21.418514      21.512857      21.506596      21.411793      21.403271      21.498594      21.593340      21.687407      21.694506      21.600870      21.563759      21.658897      21.664911      21.569893      21.577129      21.671926      21.679615      21.585142      21.394163      21.489960      21.481604      21.385445      21.377747      21.474138      21.467884      21.371378      21.176592      21.274279      21.280752      21.183165      21.191341      21.288689      21.297791      21.200848      21.005219      21.103329      21.093393      20.994829      20.986170      21.084974      21.078316      20.979441      21.124561      21.027916      21.016666      21.114113      21.211025      21.307409      21.316507      21.220760      21.228582      21.323746      21.327795      21.232988      21.137865      21.133047      21.037161      21.042458      20.946814      20.940956      20.844477      20.851006      20.755138      20.659380      20.651035      20.747797      20.735420      20.637178      20.621403      20.721041      20.820135      20.918676      20.930830      20.833323      20.779837      20.879951      20.886732      20.786644      20.795771      20.895628      20.906496      20.807148      20.606499      20.707151      20.695236      20.594009      20.584459      20.685888      20.679085      20.577696      20.373051      20.475676      20.482351      20.379581      20.389460      20.492083      20.505186      20.403229      20.197622      20.300673      20.286182      20.182346      20.172358      20.276209      20.269892      20.166342      20.341782      20.244106      20.218664      20.319715      20.420650      20.521252      20.538696      20.440136      20.458155      20.554382      20.564001      20.469446      20.376455      20.362885      20.269449      20.286270      20.200926      20.123560      20.094978      20.179314      20.117849      20.147915      20.054642      20.017839      19.919439      19.967131      19.892248      19.823011      19.963905      20.021042      20.058292      20.009426      19.981985      19.930159      19.410980      19.448801      19.509834      19.598328      19.841274      19.726734      19.687187      19.672600      19.583500      19.589252      19.510864      19.462366      19.466856      19.510731      19.510218      19.468140      19.468382      19.509745      19.578896      19.580456      19.666475      19.663696      19.757866      19.761587      19.861729      19.857258      19.959351      20.062666      20.068279      19.964451      19.974009      20.078156      20.094261      19.990906      19.888044      19.786484      19.769474      19.870665      19.853367      19.754755      19.754534      19.853086      19.954330      20.056776      20.057201      19.954679      19.955366      20.058029      20.059628      19.956713      19.855034      19.853926      19.755194      19.756073      19.662373      19.661724      19.577677      19.578093      19.509405      19.468336      19.468245      19.509192      19.509062      19.468168      19.468119      19.508989      19.577345      19.577459      19.661398      19.661234      19.661150      19.661106      19.577253      19.577286      19.508947      19.468086      19.468069      19.508924      19.508913      19.468060      19.468054      19.508907      19.577229      19.577238      19.661085      19.661074      19.754322      19.852814      19.852833      19.754335      19.754366      19.754421      19.852943      19.852871      19.954062      19.954153      20.056557      20.056444      20.056387      19.954014      19.953991      20.056358      20.159067      20.159103      20.261703      20.261658      20.363880      20.465605      20.465670      20.363934      20.364037      20.465796      20.466034      20.364237      20.261955      20.159311      20.159174      20.261789      20.159576      20.262274      20.262884      20.160089      20.161074      20.162930      20.266146      20.264034      20.366657      20.369017      20.471397      20.468809      20.467314      20.365335      20.364618      20.466484      20.567810      20.668575      20.669641      20.568760      20.570421      20.573217      20.674448      20.671465      20.771927      20.775074      20.875095      20.871809      20.869694      20.769953      20.768768      20.868395      20.767702      20.867191      20.867628      20.768084      20.667973      20.567287      20.567005      20.667643      20.667465      20.566856      20.566778      20.667372      20.767384      20.767494      20.866949      20.866817      20.866749      20.866713      20.767294      20.767324      20.667324      20.566738      20.566717      20.667297      20.667284      20.566706      20.566700      20.667278      20.767271      20.866682      20.866693      20.767279      20.767263      20.866673      20.866674      20.767263      20.767263      20.866674      20.866678      20.767267      20.566698      20.667274      20.667273      20.566696      20.566696      20.667273      20.667273      20.566694      20.363823      20.465536      20.465536      20.363823      20.363823      20.465538      20.465538      20.363825      20.159031      20.261614      20.261612      20.159031      20.159029      20.261612      20.261612      20.159029      20.261618      20.159035      20.159033      20.261614      20.363827      20.465542      20.465546      20.363831      20.363838      20.465555      20.465572      20.363852      20.261635      20.261623      20.159040      20.159050      20.056343      19.953978      19.953972      20.056335      20.056328      20.056330      19.953970      19.953968      19.852795      19.852797      19.754309      19.754307      19.754311      19.852798      19.852804      19.754314      19.661068      19.661064      19.577223      19.577225      19.508904      19.468052      19.468050      19.508902      19.508902      19.468048      19.468048      19.508900      19.577221      19.577221      19.661062      19.661062      19.661062      19.661062      19.577221      19.577221      19.508900      19.468048      19.468048      19.508900      19.508900      19.468048      19.468048      19.508900      19.577221      19.577221      19.661062      19.661062      19.754307      19.754307      19.852795      19.852795      19.953966      20.056326      20.056326      19.953966      19.953966      20.056328      20.056328      19.953966      19.852795      19.754307      19.754307      19.852795      19.852795      19.754307      19.754307      19.852795      19.953966      20.056326      20.056326      19.953966      19.953966      20.056326      20.056326      19.953966      19.852795      19.852795      19.754307      19.754307      19.661062      19.661062      19.577221      19.577221      19.508900      19.468048      19.468048      19.508900      19.508900      19.468048      19.468048      19.508900      19.577221      19.577221      19.661062      19.661062      19.661062      19.661062      19.577221      19.577221      19.508900      19.468048      19.468048      19.508900      19.754307      19.754307      19.852795      19.852795      19.953966      19.953966      20.056326      20.056326      20.363823      20.465536      20.465536      20.363823      20.261612      20.159029      20.159029      20.261612      20.159029      20.261612      20.261612      20.159029      20.159029      20.159029      20.261612      20.261612      20.363823      20.363823      20.465536      20.465536      20.465536      20.363823      20.363823      20.465536      20.566694      20.667271      20.667271      20.566694      20.566694      20.566694      20.667271      20.667271      20.767262      20.767262      20.866673      20.866673      20.866673      20.767262      20.767262      20.866673      20.767262      20.866673      20.866673      20.767262      20.667271      20.566694      20.566694      20.667271      20.965511      20.965511      21.063786      21.063786      21.161510      21.161510      21.258692      21.258692      21.546904      21.641687      21.641687      21.546904      21.451416      21.451416      21.355331      21.355331      21.355331      21.355331      21.451416      21.451416      21.546904      21.641687      21.641687      21.546904      21.546904      21.641689      21.641689      21.546904      21.451416      21.451416      21.355331      21.355333      21.258694      21.258694      21.161510      21.161510      21.063787      20.965511      20.965511      21.063786      21.063786      20.965511      20.965511      21.063786      21.161510      21.258692      21.258694      21.161510      21.063787      20.965511      20.965511      21.063787      21.161512      21.258694      21.258696      21.161512      21.161516      21.258698      21.258703      21.161520      21.063793      21.063789      20.965513      20.965517      20.965523      21.063801      21.063816      20.965534      20.965557      20.965601      21.063894      21.063843      21.161579      21.161640      21.258844      21.258774      21.258736      21.161547      21.161530      21.258715      21.355358      21.451447      21.451475      21.355383      21.355427      21.355511      21.451624      21.451529      21.547035      21.547146      21.641968      21.641844      21.641771      21.546974      21.546942      21.641733      21.641712      21.641701      21.546913      21.546923      21.451431      21.355345      21.355339      21.451424      21.451420      21.355335      21.355333      21.451418      21.546906      21.641691      21.641695      21.546907      21.827814      21.735523      21.735521      21.827808      21.917238      22.000820      22.000826      21.917242      21.917253      22.000837      22.000860      21.917273      21.827839      21.827822      21.735531      21.735544      21.735569      21.827868      21.827919      21.735615      21.735697      21.735836      21.828169      21.828011      21.917469      21.917645      22.001278      22.001083      22.000967      21.917366      21.917305      22.000898      22.071833      22.114716      22.114798      22.071909      22.072039      22.072252      22.115158      22.114935      22.114668      22.071789      22.071764      22.114641      22.114628      22.071751      22.071743      22.114618      22.114611      22.071737      22.071737      22.114611      22.114614      22.114613      22.071737      22.071739      22.000816      22.000814      21.917233      21.917234      21.827806      21.735518      21.735518      21.827805      21.827805      21.735518      21.735518      21.827805      21.917233      21.917233      22.000814      22.000813      22.000813      22.000813      21.917233      21.917233      21.827805      21.735516      21.735516      21.827805      22.071735      22.071735      22.114611      22.114611         </DataArray>
      </CellData>
      <Points>
        <DataArray type="Float64" Name="Points" NumberOfComponents="3" format="ascii">
6300.000000 3000.000000 0.000000
6600.000000 3000.000000 0.000000
6600.000000 3300.000000 0.000000
6300.000000 3300.000000 0.000000
6300.000000 3000.000000 300.000000
6600.000000 3000.000000 300.000000
6600.000000 3300.000000 300.000000
6300.000000 3300.000000 300.000000
6000.000000 3000.000000 0.000000
6000.000000 3300.000000 0.000000
6000.000000 3000.000000 300.000000
6000.000000 3300.000000 300.000000
6300.000000 3600.000000 0.000000
6000.000000 3600.000000 0.000000
6300.000000 3600.000000 300.000000
6000.000000 3600.000000 300.000000
6600.000000 3600.000000 0.000000
6600.000000 3600.000000 300.000000
6900.000000 3300.000000 0.000000
6900.000000 3600.000000 0.000000
6900.000000 3300.000000 300.000000
6900.000000 3600.000000 300.000000
7200.000000 3300.000000 0.000000
7200.000000 3600.000000 0.000000
7200.000000 3300.000000 300.000000
7200.000000 3600.000000 300.000000
6900.000000 3000.000000 0.000000
7200.000000 3000.000000 0.000000
6900.000000 3000.000000 300.000000
7200.000000 3000.000000 300.000000
6600.000000 2700.000000 0.000000
6900.000000 2700.000000 0.000000
6600.000000 2700.000000 300.000000
6900.000000 2700.000000 300.000000
7200.000000 2700.000000 0.000000
7200.000000 2700.000000 300.000000
6900.000000 2400.000000 0.000000
7200.000000 2400.000000 0.000000
6900.000000 2400.000000 300.000000
7200.000000 2400.000000 300.000000
6600.000000 2400.000000 0.000000
6600.000000 2400.000000 300.000000
6300.000000 2400.000000 0.000000
6300.000000 2700.000000 0.000000
6300.000000 2400.000000 300.000000
6300.000000 2700.000000 300.000000
6000.000000 2700.000000 0.000000
6000.000000 2700.000000 300.000000
6000.000000 2400.000000 0.000000
6000.000000 2400.000000 300.000000
5700.000000 2400.000000 0.000000
5700.000000 2700.000000 0.000000
5700.000000 2400.000000 300.000000
5700.000000 2700.000000 300.000000
5700.000000 3000.000000 0.000000
5700.000000 3000.000000 300.000000
5400.000000 2700.000000 0.000000
5400.000000 3000.000000 0.000000
5400.000000 2700.000000 300.000000
5400.000000 3000.000000 300.000000
5400.000000 2400.000000 0.000000
5400.000000 2400.000000 300.000000
5100.000000 2400.000000 0.000000
5100.000000 2700.000000 0.000000
5100.000000 2400.000000 300.000000
5100.000000 2700.000000 300.000000
4800.000000 2400.000000 0.000000
4800.000000 2700.000000 0.000000
4800.000000 2400.000000 300.000000
4800.000000 2700.000000 300.000000
5100.000000 3000.000000 0.000000
4800.000000 3000.000000 0.000000
5100.000000 3000.000000 300.000000
4800.000000 3000.000000 300.000000
5400.000000 3300.000000 0.000000
5100.000000 3300.000000 0.000000
5400.000000 3300.000000 300.000000
5100.000000 3300.000000 300.000000
4800.000000 3300.000000 0.000000
4800.000000 3300.000000 300.000000
5100.000000 3600.000000 0.000000
4800.000000 3600.000000 0.000000
5100.000000 3600.000000 300.000000
4800.000000 3600.000000 300.000000
5400.000000 3600.000000 0.000000
5400.000000 3600.000000 300.000000
5700.000000 3300.000000 0.000000
5700.000000 3600.000000 0.000000
5700.000000 3300.000000 300.000000
5700.000000 3600.000000 300.000000
6000.000000 3900.000000 0.000000
5700.000000 3900.000000 0.000000
6000.000000 3900.000000 300.000000
5700.000000 3900.000000 300.000000
6000.000000 4200.000000 0.000000
5700.000000 4200.000000 0.000000
6000.000000 4200.000000 300.000000
5700.000000 4200.000000 300.000000
5400.000000 3900.000000 0.000000
5400.000000 4200.000000 0.000000
5400.000000 3900.000000 300.000000
5400.000000 4200.000000 300.000000
5100.000000 3900.000000 0.000000
5100.000000 3900.000000 300.000000
4800.000000 3900.000000 0.000000
4800.000000 3900.000000 300.000000
5100.000000 4200.000000 0.000000
4800.000000 4200.000000 0.000000
5100.000000 4200.000000 300.000000
4800.000000 4200.000000 300.000000
5400.000000 4500.000000 0.000000
5100.000000 4500.000000 0.000000
5400.000000 4500.000000 300.000000
5100.000000 4500.000000 300.000000
4800.000000 4500.000000 0.000000
4800.000000 4500.000000 300.000000
5100.000000 4800.000000 0.000000
4800.000000 4800.000000 0.000000
5100.000000 4800.000000 300.000000
4800.000000 4800.000000 300.000000
5400.000000 4800.000000 0.000000
5400.000000 4800.000000 300.000000
5700.000000 4500.000000 0.000000
5700.000000 4800.000000 0.000000
5700.000000 4500.000000 300.000000
5700.000000 4800.000000 300.000000
6000.000000 4500.000000 0.000000
6000.000000 4500.000000 300.000000
6000.000000 4800.000000 0.000000
6000.000000 4800.000000 300.000000
6300.000000 4500.000000 0.000000
6300.000000 4800.000000 0.000000
6300.000000 4500.000000 300.000000
6300.000000 4800.000000 300.000000
6600.000000 4500.000000 0.000000
6600.000000 4800.000000 0.000000
6600.000000 4500.000000 300.000000
6600.000000 4800.000000 300.000000
6300.000000 4200.000000 0.000000
6600.000000 4200.000000 0.000000
6300.000000 4200.000000 300.000000
6600.000000 4200.000000 300.000000
6300.000000 3900.000000 0.000000
6300.000000 3900.000000 300.000000
6600.000000 3900.000000 0.000000
6600.000000 3900.000000 300.000000
6900.000000 3900.000000 0.000000
6900.000000 4200.000000 0.000000
6900.000000 3900.000000 300.000000
6900.000000 4200.000000 300.000000
7200.000000 3900.000000 0.000000
7200.000000 3900.000000 300.000000
7200.000000 4200.000000 0.000000
7200.000000 4200.000000 300.000000
7200.000000 4500.000000 0.000000
6900.000000 4500.000000 0.000000
7200.000000 4500.000000 300.000000
6900.000000 4500.000000 300.000000
6900.000000 4800.000000 0.000000
6900.000000 4800.000000 300.000000
7200.000000 4800.000000 0.000000
7200.000000 4800.000000 300.000000
7500.000000 4500.000000 0.000000
7500.000000 4800.000000 0.000000
7500.000000 4500.000000 300.000000
7500.000000 4800.000000 300.000000
7800.000000 4500.000000 0.000000
7800.000000 4800.000000 0.000000
7800.000000 4500.000000 300.000000
7800.000000 4800.000000 300.000000
7500.000000 4200.000000 0.000000
7800.000000 4200.000000 0.000000
7500.000000 4200.000000 300.000000
7800.000000 4200.000000 300.000000
7500.000000 3900.000000 0.000000
7500.000000 3900.000000 300.000000
7500.000000 3600.000000 0.000000
7500.000000 3600.000000 300.000000
7800.000000 3600.000000 0.000000
7800.000000 3900.000000 0.000000
7800.000000 3600.000000 300.000000
7800.000000 3900.000000 300.000000
8100.000000 3900.000000 0.000000
8100.000000 4200.000000 0.000000
8100.000000 3900.000000 300.000000
8100.000000 4200.000000 300.000000
8100.000000 3600.000000 0.000000
8100.000000 3600.000000 300.000000
8400.000000 3600.000000 0.000000
8400.000000 3900.000000 0.000000
8400.000000 3600.000000 300.000000
8400.000000 3900.000000 300.000000
8400.000000 4200.000000 0.000000
8400.000000 4200.000000 300.000000
8400.000000 4500.000000 0.000000
8100.000000 4500.000000 0.000000
8400.000000 4500.000000 300.000000
8100.000000 4500.000000 300.000000
8100.000000 4800.000000 0.000000
8100.000000 4800.000000 300.000000
8400.000000 4800.000000 0.000000
8400.000000 4800.000000 300.000000
8700.000000 4500.000000 0.000000
8700.000000 4800.000000 0.000000
8700.000000 4500.000000 300.000000
8700.000000 4800.000000 300.000000
8700.000000 4200.000000 0.000000
8700.000000 4200.000000 300.000000
9000.000000 4200.000000 0.000000
9000.000000 4500.000000 0.000000
9000.000000 4200.000000 300.000000
9000.000000 4500.000000 300.000000
9000.000000 4800.000000 0.000000
9000.000000 4800.000000 300.000000
8700.000000 3600.000000 0.000000
9000.000000 3600.000000 0.000000
9000.000000 3900.000000 0.000000
8700.000000 3900.000000 0.000000
8700.000000 3600.000000 300.000000
9000.000000 3600.000000 300.000000
9000.000000 3900.000000 300.000000
8700.000000 3900.000000 300.000000
8700.000000 3000.000000 0.000000
9000.000000 3000.000000 0.000000
9000.000000 3300.000000 0.000000
8700.000000 3300.000000 0.000000
8700.000000 3000.000000 300.000000
9000.000000 3000.000000 300.000000
9000.000000 3300.000000 300.000000
8700.000000 3300.000000 300.000000
8400.000000 3000.000000 0.000000
8400.000000 3300.000000 0.000000
8400.000000 3000.000000 300.000000
8400.000000 3300.000000 300.000000
8700.000000 2400.000000 0.000000
9000.000000 2400.000000 0.000000
9000.000000 2700.000000 0.000000
8700.000000 2700.000000 0.000000
8700.000000 2400.000000 300.000000
9000.000000 2400.000000 300.000000
9000.000000 2700.000000 300.000000
8700.000000 2700.000000 300.000000
8400.000000 2700.000000 0.000000
8400.000000 2700.000000 300.000000
8400.000000 2400.000000 0.000000
8400.000000 2400.000000 300.000000
8100.000000 2400.000000 0.000000
8100.000000 2700.000000 0.000000
8100.000000 2400.000000 300.000000
8100.000000 2700.000000 300.000000
7800.000000 2400.000000 0.000000
7800.000000 2700.000000 0.000000
7800.000000 2400.000000 300.000000
7800.000000 2700.000000 300.000000
8100.000000 3000.000000 0.000000
7800.000000 3000.000000 0.000000
8100.000000 3000.000000 300.000000
7800.000000 3000.000000 300.000000
8100.000000 3300.000000 0.000000
8100.000000 3300.000000 300.000000
7800.000000 3300.000000 0.000000
7800.000000 3300.000000 300.000000
7500.000000 3300.000000 0.000000
7500.000000 3300.000000 300.000000
7500.000000 3000.000000 0.000000
7500.000000 3000.000000 300.000000
7500.000000 2700.000000 0.000000
7500.000000 2700.000000 300.000000
7500.000000 2400.000000 0.000000
7500.000000 2400.000000 300.000000
7200.000000 2100.000000 0.000000
7500.000000 2100.000000 0.000000
7200.000000 2100.000000 300.000000
7500.000000 2100.000000 300.000000
7800.000000 2100.000000 0.000000
7800.000000 2100.000000 300.000000
7500.000000 1800.000000 0.000000
7800.000000 1800.000000 0.000000
7500.000000 1800.000000 300.000000
7800.000000 1800.000000 300.000000
7200.000000 1800.000000 0.000000
7200.000000 1800.000000 300.000000
7200.000000 1500.000000 0.000000
7500.000000 1500.000000 0.000000
7200.000000 1500.000000 300.000000
7500.000000 1500.000000 300.000000
7200.000000 1200.000000 0.000000
7500.000000 1200.000000 0.000000
7200.000000 1200.000000 300.000000
7500.000000 1200.000000 300.000000
7800.000000 1200.000000 0.000000
7800.000000 1500.000000 0.000000
7800.000000 1200.000000 300.000000
7800.000000 1500.000000 300.000000
8100.000000 1500.000000 0.000000
8100.000000 1800.000000 0.000000
8100.000000 1500.000000 300.000000
8100.000000 1800.000000 300.000000
8100.000000 1200.000000 0.000000
8100.000000 1200.000000 300.000000
8400.000000 1200.000000 0.000000
8400.000000 1500.000000 0.000000
8400.000000 1200.000000 300.000000
8400.000000 1500.000000 300.000000
8400.000000 1800.000000 0.000000
8400.000000 1800.000000 300.000000
8400.000000 2100.000000 0.000000
8100.000000 2100.000000 0.000000
8400.000000 2100.000000 300.000000
8100.000000 2100.000000 300.000000
8700.000000 2100.000000 0.000000
8700.000000 2100.000000 300.000000
8700.000000 1800.000000 0.000000
8700.000000 1800.000000 300.000000
9000.000000 1800.000000 0.000000
9000.000000 2100.000000 0.000000
9000.000000 1800.000000 300.000000
9000.000000 2100.000000 300.000000
8700.000000 1200.000000 0.000000
9000.000000 1200.000000 0.000000
9000.000000 1500.000000 0.000000
8700.000000 1500.000000 0.000000
8700.000000 1200.000000 300.000000
9000.000000 1200.000000 300.000000
9000.000000 1500.000000 300.000000
8700.000000 1500.000000 300.000000
8700.000000 600.000000 0.000000
9000.000000 600.000000 0.000000
9000.000000 900.000000 0.000000
8700.000000 900.000000 0.000000
8700.000000 600.000000 300.000000
9000.000000 600.000000 300.000000
9000.000000 900.000000 300.000000
8700.000000 900.000000 300.000000
8400.000000 600.000000 0.000000
8400.000000 900.000000 0.000000
8400.000000 600.000000 300.000000
8400.000000 900.000000 300.000000
8700.000000 0.000000 0.000000
9000.000000 0.000000 0.000000
9000.000000 300.000000 0.000000
8700.000000 300.000000 0.000000
8700.000000 0.000000 300.000000
9000.000000 0.000000 300.000000
9000.000000 300.000000 300.000000
8700.000000 300.000000 300.000000
8400.000000 300.000000 0.000000
8400.000000 300.000000 300.000000
8400.000000 0.000000 0.000000
8400.000000 0.000000 300.000000
8100.000000 0.000000 0.000000
8100.000000 300.000000 0.000000
8100.000000 0.000000 300.000000
8100.000000 300.000000 300.000000
7800.000000 0.000000 0.000000
7800.000000 300.000000 0.000000
7800.000000 0.000000 300.000000
7800.000000 300.000000 300.000000
8100.000000 600.000000 0.000000
7800.000000 600.000000 0.000000
8100.000000 600.000000 300.000000
7800.000000 600.000000 300.000000
8100.000000 900.000000 0.000000
8100.000000 900.000000 300.000000
7800.000000 900.000000 0.000000
7800.000000 900.000000 300.000000
7500.000000 900.000000 0.000000
7500.000000 900.000000 300.000000
7500.000000 600.000000 0.000000
7500.000000 600.000000 300.000000
7200.000000 600.000000 0.000000
7200.000000 900.000000 0.000000
7200.000000 600.000000 300.000000
7200.000000 900.000000 300.000000
7200.000000 300.000000 0.000000
7500.000000 300.000000 0.000000
7200.000000 300.000000 300.000000
7500.000000 300.000000 300.000000
7500.000000 0.000000 0.000000
7500.000000 0.000000 300.000000
7200.000000 0.000000 0.000000
7200.000000 0.000000 300.000000
6900.000000 0.000000 0.000000
6900.000000 300.000000 0.000000
6900.000000 0.000000 300.000000
6900.000000 300.000000 300.000000
6900.000000 600.000000 0.000000
6900.000000 600.000000 300.000000
6600.000000 300.000000 0.000000
6600.000000 600.000000 0.000000
6600.000000 300.000000 300.000000
6600.000000 600.000000 300.000000
6600.000000 0.000000 0.000000
6600.000000 0.000000 300.000000
6300.000000 0.000000 0.000000
6300.000000 300.000000 0.000000
6300.000000 0.000000 300.000000
6300.000000 300.000000 300.000000
6000.000000 0.000000 0.000000
6000.000000 300.000000 0.000000
6000.000000 0.000000 300.000000
6000.000000 300.000000 300.000000
6300.000000 600.000000 0.000000
6000.000000 600.000000 0.000000
6300.000000 600.000000 300.000000
6000.000000 600.000000 300.000000
6600.000000 900.000000 0.000000
6300.000000 900.000000 0.000000
6600.000000 900.000000 300.000000
6300.000000 900.000000 300.000000
6000.000000 900.000000 0.000000
6000.000000 900.000000 300.000000
6300.000000 1200.000000 0.000000
6000.000000 1200.000000 0.000000
6300.000000 1200.000000 300.000000
6000.000000 1200.000000 300.000000
6600.000000 1200.000000 0.000000
6600.000000 1200.000000 300.000000
6900.000000 900.000000 0.000000
6900.000000 1200.000000 0.000000
6900.000000 900.000000 300.000000
6900.000000 1200.000000 300.000000
6600.000000 2100.000000 0.000000
6900.000000 2100.000000 0.000000
6600.000000 2100.000000 300.000000
6900.000000 2100.000000 300.000000
6900.000000 1800.000000 0.000000
6900.000000 1800.000000 300.000000
6600.000000 1800.000000 0.000000
6600.000000 1800.000000 300.000000
6600.000000 1500.000000 0.000000
6900.000000 1500.000000 0.000000
6600.000000 1500.000000 300.000000
6900.000000 1500.000000 300.000000
6300.000000 1500.000000 0.000000
6000.000000 1500.000000 0.000000
6300.000000 1500.000000 300.000000
6000.000000 1500.000000 300.000000
6300.000000 1800.000000 0.000000
6300.000000 1800.000000 300.000000
6000.000000 1800.000000 0.000000
6000.000000 1800.000000 300.000000
6300.000000 2100.000000 0.000000
6000.000000 2100.000000 0.000000
6300.000000 2100.000000 300.000000
6000.000000 2100.000000 300.000000
5400.000000 2100.000000 0.000000
5700.000000 2100.000000 0.000000
5400.000000 2100.000000 300.000000
5700.000000 2100.000000 300.000000
5700.000000 1800.000000 0.000000
5700.000000 1800.000000 300.000000
5400.000000 1800.000000 0.000000
5400.000000 1800.000000 300.000000
5400.000000 1500.000000 0.000000
5700.000000 1500.000000 0.000000
5400.000000 1500.000000 300.000000
5700.000000 1500.000000 300.000000
5700.000000 1200.000000 0.000000
5700.000000 1200.000000 300.000000
5400.000000 1200.000000 0.000000
5400.000000 1200.000000 300.000000
4800.000000 1200.000000 0.000000
5100.000000 1200.000000 0.000000
5100.000000 1500.000000 0.000000
4800.000000 1500.000000 0.000000
4800.000000 1200.000000 300.000000
5100.000000 1200.000000 300.000000
5100.000000 1500.000000 300.000000
4800.000000 1500.000000 300.000000
5100.000000 1800.000000 0.000000
5100.000000 1800.000000 300.000000
4800.000000 1800.000000 0.000000
4800.000000 1800.000000 300.000000
5100.000000 2100.000000 0.000000
4800.000000 2100.000000 0.000000
5100.000000 2100.000000 300.000000
4800.000000 2100.000000 300.000000
5100.000000 600.000000 0.000000
5400.000000 600.000000 0.000000