<VTKFile type="UnstructuredGrid" version="1.0" byte_order="LittleEndian" header_type="UInt64">
  <UnstructuredGrid>
    <Piece NumberOfPoints="1908" NumberOfCells="892">
      <CellData Scalars="Scalars_">
        <DataArray type="Float32" Name="Scalars_" format="ascii">
     16.169752      16.030729      16.027805      16.166759      16.303595      16.437897      16.441002      16.306646      16.310848      16.445227      16.450762      16.316418      16.179518      16.173923      16.034861      16.040470      15.899483      15.893868      15.751045      15.756650      15.612006      15.465551      15.460011      15.606425      15.602487      15.456162      15.453588      15.599813      15.744264      15.747030      15.889790      15.886940      15.885017      15.883759      15.741234      15.742422      15.598058      15.451921      15.450872      15.596938      15.596241      15.450225      15.449834      15.595816      15.740025      15.740485      15.882959      15.882462      16.023092      16.161818      16.162394      16.023628      16.024481      16.025805      16.164688      16.163300      16.300003      16.301455      16.435694      16.434179      16.433170      16.299046      16.298429      16.432516      16.563305      16.689384      16.690123      16.564001      16.565062      16.566633      16.692863      16.691233      16.810118      16.811804      16.918766      16.917025      16.915813      16.808958      16.808180      16.914997      17.001225      17.002079      17.051929      17.051052      17.055040      17.005127      17.003334      17.053215      17.060921      17.010937      17.007608      17.057558      17.070650      17.065258      17.015249      17.020636      16.934164      16.827110      16.821690      16.928766      16.921196      16.924479      16.817419      16.814180      16.695183      16.698380      16.572050      16.568897      16.576292      16.702635      16.708092      16.581787      16.588625      16.714815      16.722736      16.596758      16.605946      16.615717      16.740973      16.731609      16.850042      16.859030      16.965240      16.956585      16.948252      16.841455      16.833729      16.940693      17.027103      17.034538      17.084463      17.077095      17.100704      17.051052      17.042667      17.092480      17.115309      17.066059      17.059088      17.108543      17.122969      17.120306      17.071232      17.073994      16.989239      16.884279      16.881187      16.986324      16.973595      16.980886      16.875439      16.867767      16.750137      16.758234      16.633915      16.625349      16.640398      16.764332      16.767620      16.643906      16.515692      16.511940      16.380363      16.384386      16.250771      16.115271      16.110605      16.246445      16.238541      16.102116      16.091164      16.228273      16.363338      16.495951      16.505032      16.372984      16.323492      16.457718      16.466070      16.332073      16.341951      16.475594      16.485806      16.352638      16.079201      16.216969      16.205774      16.067465      16.056824      16.195524      16.186708      16.047770      15.764141      15.906883      15.916176      15.773673      15.785146      15.927224      15.939542      15.798086      15.509890      15.654868      15.641260      15.495562      15.483184      15.629343      15.619575      15.473183      15.682690      15.539722      15.525161      15.669190      15.811548      15.952221      15.963932      15.824104      15.833985      15.973076      15.978127      15.839477      15.699405      15.693410      15.551401      15.557980      15.415280      15.408017      15.263341      15.271416      15.126561      14.980999      14.970732      15.117505      15.101881      14.953241      14.932581      15.083123      15.232108      15.379463      15.395230      15.249258      15.174832      15.324944      15.335172      15.185280      15.198645      15.348031      15.363138      15.214600      14.912189      15.064275      15.047385      14.894256      14.879796      15.033489      15.022831      14.868935      14.555617      14.713171      14.724227      14.566860      14.582593      14.739295      14.758410      14.603081      14.288861      14.446440      14.424325      14.264785      14.247511      14.407858      14.396437      14.235930      14.503052      14.353868      14.319458      14.473551      14.627476      14.780618      14.803579      14.653299      14.676076      14.823389      14.835189      14.689879      14.546288      14.529764      14.386003      14.406370      14.273208      14.151447      14.117424      14.247250      14.166090      14.207357      14.066061      14.014623      13.866261      13.934265      13.820646      13.720619      13.913299      14.003021      14.047411      13.968664      13.924367      13.859815      13.036302      13.104565      13.210830      13.361710      13.741146      13.570307      13.503666      13.473390      13.329416      13.343402      13.212000      13.129740      13.137630      13.210126      13.207227      13.138990      13.138221      13.204532      13.314768      13.320403      13.457747      13.449093      13.597474      13.608003      13.764908      13.753512      13.913334      14.074610      14.086302      13.925017      13.943915      14.104426      14.130875      13.973124      13.816184      13.660149      13.626634      13.784199      13.740588      13.585877      13.584676      13.739236      13.898088      14.058680      14.060262      13.899565      13.902063      14.062918      14.067340      13.906276      13.746820      13.742893      13.587927      13.591433      13.444124      13.441216      13.309082      13.311260      13.202432      13.137010      13.135929      13.200933      13.199918      13.135115      13.134548      13.199254      13.306904      13.307734      13.439496      13.438475      13.437868      13.437509      13.306089      13.306396      13.198832      13.134173      13.133933      13.198566      13.198403      13.133782      13.133689      13.198304      13.305794      13.305904      13.437296      13.437170      13.583173      13.737549      13.737706      13.583314      13.583557      13.583971      13.738442      13.737978      13.896709      13.897219      14.057743      14.057191      14.056868      13.896411      13.896237      14.056679      14.217296      14.217501      14.377366      14.377145      14.535677      14.692590      14.692847      14.535915      14.536320      14.693283      14.694016      14.537002      14.378377      14.218442      14.217850      14.377741      14.219444      14.379446      14.381228      14.221126      14.223923      14.228520      14.388925      14.384167      14.543113      14.548025      14.705520      14.700463      14.697239      14.540032      14.538143      14.695236      14.850571      15.004080      15.006317      14.852691      14.856056      14.861244      15.015123      15.009820      15.161728      15.167130      15.317266      15.311786      15.308041      15.158098      15.155745      15.305573      15.153347      15.303018      15.303998      15.154261      15.002687      14.849267      14.848478      15.001838      15.001328      14.848006      14.847727      15.001023      15.152463      15.152794      15.302419      15.302059      15.301846      15.301720      15.152153      15.152268      15.000845      14.847563      14.847467      15.000740      15.000679      14.847411      14.847380      15.000644      15.152048      15.301604      15.301646      15.152086      15.152001      15.301553      15.301558      15.152005      15.152013      15.301565      15.301579      15.152026      14.847361      15.000624      15.000612      14.847350      14.847344      15.000606      15.000602      14.847341      14.535350      14.692234      14.692237      14.535353      14.535358      14.692243      14.692252      14.535367      14.217031      14.376859      14.376851      14.217025      14.217020      14.376846      14.376843      14.217018      14.376898      14.217068      14.217045      14.376873      14.535382      14.692269      14.692299      14.535410      14.535457      14.692350      14.692438      14.535538      14.377016      14.376942      14.217108      14.217176      14.056569      13.896136      13.896078      14.056505      14.056447      14.056468      13.896045      13.896026      13.737356      13.737373      13.583014      13.582999      13.583042      13.737404      13.737457      13.583090      13.437097      13.437054      13.305689      13.305728      13.198244      13.133633      13.133599      13.198209      13.198188      13.133579      13.133567      13.198175      13.305654      13.305667      13.437029      13.437015      13.437006      13.437001      13.305641      13.305646      13.198169      13.133560      13.133556      13.198164      13.198162      13.133554      13.133553      13.198160      13.305637      13.305639      13.436998      13.436996      13.582980      13.582981      13.737337      13.737335      13.896003      14.056422      14.056425      13.896005      13.896008      14.056429      14.056436      13.896014      13.737346      13.582990      13.582985      13.737340      13.737333      13.582978      13.582978      13.737333      13.896001      14.056420      14.056420      13.896001      13.896001      14.056420      14.056421      13.896002      13.737334      13.737333      13.582978      13.582979      13.436996      13.436996      13.305636      13.305636      13.198160      13.133552      13.133552      13.198159      13.198159      13.133552      13.133552      13.198159      13.305635      13.305636      13.436996      13.436996      13.436995      13.436995      13.305635      13.305635      13.198159      13.133552      13.133551      13.198159      13.582978      13.582978      13.737333      13.737333      13.896000      13.896000      14.056420      14.056419      14.535347      14.692230      14.692230      14.535347      14.376841      14.217015      14.217015      14.376841      14.217015      14.376841      14.376841      14.217015      14.217015      14.217016      14.376842      14.376842      14.535348      14.535349      14.692232      14.692231      14.692231      14.535347      14.535347      14.692230      14.847337      15.000597      15.000598      14.847337      14.847338      14.847339      15.000599      15.000598      15.151998      15.151999      15.301550      15.301549      15.301548      15.151997      15.151997      15.301547      15.151997      15.301547      15.301547      15.151997      15.000597      14.847337      14.847337      15.000597      15.449272      15.449272      15.595199      15.595199      15.739347      15.739347      15.881720      15.881720      16.297461      16.431463      16.431463      16.297462      16.160931      16.160931      16.022280      16.022280      16.022280      16.022282      16.160933      16.160931      16.297462      16.431463      16.431465      16.297462      16.297464      16.431467      16.431471      16.297468      16.160936      16.160933      16.022282      16.022285      15.881724      15.881721      15.739349      15.739351      15.595202      15.449276      15.449274      15.595201      15.595200      15.449273      15.449272      15.595200      15.739348      15.881720      15.881721      15.739348      15.595211      15.449284      15.449279      15.595206      15.739355      15.881728      15.881735      15.739362      15.739372      15.881747      15.881768      15.739391      15.595239      15.595222      15.449292      15.449307      15.449335      15.595268      15.595320      15.449382      15.449463      15.449600      15.595560      15.595409      15.739579      15.739746      15.882158      15.881976      15.881868      15.739482      15.739425      15.881805      16.022375      16.161036      16.161114      16.022444      16.022564      16.022762      16.161461      16.161243      16.297808      16.298044      16.432100      16.431843      16.431686      16.297665      16.297579      16.431593      16.431538      16.431505      16.297501      16.297529      16.160990      16.022333      16.022310      16.160965      16.160950      16.022297      16.022289      16.160940      16.297474      16.431477      16.431486      16.297483      16.688183      16.562191      16.562180      16.688169      16.806870      16.913593      16.913610      16.806885      16.806910      16.913637      16.913685      16.806953      16.688244      16.688206      16.562212      16.562248      16.562309      16.688313      16.688423      16.562412      16.562582      16.562860      16.688910      16.688610      16.807350      16.807673      16.914459      16.914114      16.913897      16.807150      16.807026      16.913765      16.999922      17.049706      17.049852      17.000065      17.000294      17.000660      17.050468      17.050091      17.049616      16.999838      16.999786      17.049564      17.049532      16.999756      16.999739      17.049515      17.049496      16.999722      16.999720      17.049494      17.049505      17.049500      16.999723      16.999729      16.913584      16.913580      16.806856      16.806862      16.688162      16.562172      16.562168      16.688158      16.688154      16.562166      16.562166      16.688154      16.806852      16.806854      16.913576      16.913576      16.913574      16.913574      16.806852      16.806852      16.688152      16.562164      16.562164      16.688152      16.999718      16.999718      17.049494      17.049494         </DataArray>
      </CellData>
      <Points>
        <DataArray type="Float64" Name="Points" NumberOfComponents="3" format="ascii">
6300.000000 3000.000000 0.000000
6600.000000 3000.000000 0.000000
6600.000000 3300.000000 0.000000
6300.000000 3300.000000 0.000000
6300.000000 3000.000000 300.000000
6600.000000 3000.000000 300.000000
6600.000000 3300.000000 300.000000
6300.000000 3300.000000 300.000000
6000.000000 3000.000000 0.000000
6000.000000 3300.000000 0.000000
6000.000000 3000.000000 300.000000
6000.000000 3300.000000 300.000000
6300.000000 3600.000000 0.000000
6000.000000 3600.000000 0.000000
6300.000000 3600.000000 300.000000
6000.000000 3600.000000 300.000000
6600.000000 3600.000000 0.000000
6600.000000 3600.000000 300.000000
6900.000000 3300.000000 0.000000
6900.000000 3600.000000 0.000000
6900.000000 3300.000000 300.000000
6900.000000 3600.000000 300.000000
7200.000000 3300.000000 0.000000
7200.000000 3600.000000 0.000000
7200.000000 3300.000000 300.000000
7200.000000 3600.000000 300.000000
6900.000000 3000.000000 0.000000
7200.000000 3000.000000 0.000000
6900.000000 3000.000000 300.000000
7200.000000 3000.000000 300.000000
6600.000000 2700.000000 0.000000
6900.000000 2700.000000 0.000000
6600.000000 2700.000000 300.000000
6900.000000 2700.000000 300.000000
7200.000000 2700.000000 0.000000
7200.000000 2700.000000 300.000000
6900.000000 2400.000000 0.000000
7200.000000 2400.000000 0.000000
6900.000000 2400.000000 300.000000
7200.000000 2400.000000 300.000000
6600.000000 2400.000000 0.000000
6600.000000 2400.000000 300.000000
6300.000000 2400.000000 0.000000
6300.000000 2700.000000 0.000000
6300.000000 2400.000000 300.000000
6300.000000 2700.000000 300.000000
6000.000000 2700.000000 0.000000
6000.000000 2700.000000 300.000000
6000.000000 2400.000000 0.000000
6000.000000 2400.000000 300.000000
5700.000000 2400.000000 0.000000
5700.000000 2700.000000 0.000000
5700.000000 2400.000000 300.000000
5700.000000 2700.000000 300.000000
5700.000000 3000.000000 0.000000
5700.000000 3000.000000 300.000000
5400.000000 2700.000000 0.000000
5400.000000 3000.000000 0.000000
5400.000000 2700.000000 300.000000
5400.000000 3000.000000 300.000000
5400.000000 2400.000000 0.000000
5400.000000 2400.000000 300.000000
5100.000000 2400.000000 0.000000
5100.000000 2700.000000 0.000000
5100.000000 2400.000000 300.000000
5100.000000 2700.000000 300.000000
4800.000000 2400.000000 0.000000
4800.000000 2700.000000 0.000000
4800.000000 2400.000000 300.000000
4800.000000 2700.000000 300.000000
5100.000000 3000.000000 0.000000
4800.000000 3000.000000 0.000000
5100.000000 3000.000000 300.000000
4800.000000 3000.000000 300.000000
5400.000000 3300.000000 0.000000
5100.000000 3300.000000 0.000000
5400.000000 3300.000000 300.000000
5100.000000 3300.000000 300.000000
4800.000000 3300.000000 0.000000
4800.000000 3300.000000 300.000000
5100.000000 3600.000000 0.000000
4800.000000 3600.000000 0.000000
5100.000000 3600.000000 300.000000
4800.000000 3600.000000 300.000000
5400.000000 3600.000000 0.000000
5400.000000 3600.000000 300.000000
5700.000000 3300.000000 0.000000
5700.000000 3600.000000 0.000000
5700.000000 3300.000000 300.000000
5700.000000 3600.000000 300.000000
6000.000000 3900.000000 0.000000
5700.000000 3900.000000 0.000000
6000.000000 3900.000000 300.000000
5700.000000 3900.000000 300.000000
6000.000000 4200.000000 0.000000
5700.000000 4200.000000 0.000000
6000.000000 4200.000000 300.000000
5700.000000 4200.000000 300.000000
5400.000000 3900.000000 0.000000
5400.000000 4200.000000 0.000000
5400.000000 3900.000000 300.000000
5400.000000 4200.000000 300.000000
5100.000000 3900.000000 0.000000
5100.000000 3900.000000 300.000000
4800.000000 3900.000000 0.000000
4800.000000 3900.000000 300.000000
5100.000000 4200.000000 0.000000
4800.000000 4200.000000 0.000000
5100.000000 4200.000000 300.000000
4800.000000 4200.000000 300.000000
5400.000000 4500.000000 0.000000
5100.000000 4500.000000 0.000000
5400.000000 4500.000000 300.000000
5100.000000 4500.000000 300.000000
4800.000000 4500.000000 0.000000
4800.000000 4500.000000 300.000000
5100.000000 4800.000000 0.000000
4800.000000 4800.000000 0.000000
5100.000000 4800.000000 300.000000
4800.000000 4800.000000 300.000000
5400.000000 4800.000000 0.000000
5400.000000 4800.000000 300.000000
5700.000000 4500.000000 0.000000
5700.000000 4800.000000 0.000000
5700.000000 4500.000000 300.000000
5700.000000 4800.000000 300.000000
6000.000000 4500.000000 0.000000
6000.000000 4500.000000 300.000000
6000.000000 4800.000000 0.000000
6000.000000 4800.000000 300.000000
6300.000000 4500.000000 0.000000
6300.000000 4800.000000 0.000000
6300.000000 4500.000000 300.000000
6300.000000 4800.000000 300.000000
6600.000000 4500.000000 0.000000
6600.000000 4800.000000 0.000000
6600.000000 4500.000000 300.000000
6600.000000 4800.000000 300.000000
6300.000000 4200.000000 0.000000
6600.000000 4200.000000 0.000000
6300.000000 4200.000000 300.000000
6600.000000 4200.000000 300.000000
6300.000000 3900.000000 0.000000
6300.000000 3900.000000 300.000000
6600.000000 3900.000000 0.000000
6600.000000 3900.000000 300.000000
6900.000000 3900.000000 0.000000
6900.000000 4200.000000 0.000000
6900.000000 3900.000000 300.000000
6900.000000 4200.000000 300.000000
7200.000000 3900.000000 0.000000
7200.000000 3900.000000 300.000000
7200.000000 4200.000000 0.000000
7200.000000 4200.000000 300.000000
7200.000000 4500.000000 0.000000
6900.000000 4500.000000 0.000000
7200.000000 4500.000000 300.000000
6900.000000 4500.000000 300.000000
6900.000000 4800.000000 0.000000
6900.000000 4800.000000 300.000000
7200.000000 4800.000000 0.000000
7200.000000 4800.000000 300.000000
7500.000000 4500.000000 0.000000
7500.000000 4800.000000 0.000000
7500.000000 4500.000000 300.000000
7500.000000 4800.000000 300.000000
7800.000000 4500.000000 0.000000
7800.000000 4800.000000 0.000000
7800.000000 4500.000000 300.000000
7800.000000 4800.000000 300.000000
7500.000000 4200.000000 0.000000
7800.000000 4200.000000 0.000000
7500.000000 4200.000000 300.000000
7800.000000 4200.000000 300.000000
7500.000000 3900.000000 0.000000
7500.000000 3900.000000 300.000000
7500.000000 3600.000000 0.000000
7500.000000 3600.000000 300.000000
7800.000000 3600.000000 0.000000
7800.000000 3900.000000 0.000000
7800.000000 3600.000000 300.000000
7800.000000 3900.000000 300.000000
8100.000000 3900.000000 0.000000
8100.000000 4200.000000 0.000000
8100.000000 3900.000000 300.000000
8100.000000 4200.000000 300.000000
8100.000000 3600.000000 0.000000
8100.000000 3600.000000 300.000000
8400.000000 3600.000000 0.000000
8400.000000 3900.000000 0.000000
8400.000000 3600.000000 300.000000
8400.000000 3900.000000 300.000000
8400.000000 4200.000000 0.000000
8400.000000 4200.000000 300.000000
8400.000000 4500.000000 0.000000
8100.000000 4500.000000 0.000000
8400.000000 4500.000000 300.000000
8100.000000 4500.000000 300.000000
8100.000000 4800.000000 0.000000
8100.000000 4800.000000 300.000000
8400.000000 4800.000000 0.000000
8400.000000 4800.000000 300.000000
8700.000000 4500.000000 0.000000
8700.000000 4800.000000 0.000000
8700.000000 4500.000000 300.000000
8700.000000 4800.000000 300.000000
8700.000000 4200.000000 0.000000
8700.000000 4200.000000 300.000000
9000.000000 4200.000000 0.000000
9000.000000 4500.000000 0.000000
9000.000000 4200.000000 300.000000
9000.000000 4500.000000 300.000000
9000.000000 4800.000000 0.000000
9000.000000 4800.000000 300.000000
8700.000000 3600.000000 0.000000
9000.000000 3600.000000 0.000000
9000.000000 3900.000000 0.000000
8700.000000 3900.000000 0.000000
8700.000000 3600.000000 300.000000
9000.000000 3600.000000 300.000000
9000.000000 3900.000000 300.000000
8700.000000 3900.000000 300.000000
8700.000000 3000.000000 0.000000
9000.000000 3000.000000 0.000000
9000.000000 3300.000000 0.000000
8700.000000 3300.000000 0.000000
8700.000000 3000.000000 300.000000
9000.000000 3000.000000 300.000000
9000.000000 3300.000000 300.000000
8700.000000 3300.000000 300.000000
8400.000000 3000.000000 0.000000
8400.000000 3300.000000 0.000000
8400.000000 3000.000000 300.000000
8400.000000 3300.000000 300.000000
8700.000000 2400.000000 0.000000
9000.000000 2400.000000 0.000000
9000.000000 2700.000000 0.000000
8700.000000 2700.000000 0.000000
8700.000000 2400.000000 300.000000
9000.000000 2400.000000 300.000000
9000.000000 2700.000000 300.000000
8700.000000 2700.000000 300.000000
8400.000000 2700.000000 0.000000
8400.000000 2700.000000 300.000000
8400.000000 2400.000000 0.000000
8400.000000 2400.000000 300.000000
8100.000000 2400.000000 0.000000
8100.000000 2700.000000 0.000000
8100.000000 2400.000000 300.000000
8100.000000 2700.000000 300.000000
7800.000000 2400.000000 0.000000
7800.000000 2700.000000 0.000000
7800.000000 2400.000000 300.000000
7800.000000 2700.000000 300.000000
8100.000000 3000.000000 0.000000
7800.000000 3000.000000 0.000000
8100.000000 3000.000000 300.000000
7800.000000 3000.000000 300.000000
8100.000000 3300.000000 0.000000
8100.000000 3300.000000 300.000000
7800.000000 3300.000000 0.000000
7800.000000 3300.000000 300.000000
7500.000000 3300.000000 0.000000
7500.000000 3300.000000 300.000000
7500.000000 3000.000000 0.000000
7500.000000 3000.000000 300.000000
7500.000000 2700.000000 0.000000
7500.000000 2700.000000 300.000000
7500.000000 2400.000000 0.000000
7500.000000 2400.000000 300.000000
7200.000000 2100.000000 0.000000
7500.000000 2100.000000 0.000000
7200.000000 2100.000000 300.000000
7500.000000 2100.000000 300.000000
7800.000000 2100.000000 0.000000
7800.000000 2100.000000 300.000000
7500.000000 1800.000000 0.000000
7800.000000 1800.000000 0.000000
7500.000000 1800.000000 300.000000
7800.000000 1800.000000 300.000000
7200.000000 1800.000000 0.000000
7200.000000 1800.000000 300.000000
7200.000000 1500.000000 0.000000
7500.000000 1500.000000 0.000000
7200.000000 1500.000000 300.000000
7500.000000 1500.000000 300.000000
7200.000000 1200.000000 0.000000
7500.000000 1200.000000 0.000000
7200.000000 1200.000000 300.000000
7500.000000 1200.000000 300.000000
7800.000000 1200.000000 0.000000
7800.000000 1500.000000 0.000000
7800.000000 1200.000000 300.000000
7800.000000 1500.000000 300.000000
8100.000000 1500.000000 0.000000
8100.000000 1800.000000 0.000000
8100.000000 1500.000000 300.000000
8100.000000 1800.000000 300.000000
8100.000000 1200.000000 0.000000
8100.000000 1200.000000 300.000000
8400.000000 1200.000000 0.000000
8400.000000 1500.000000 0.000000
8400.000000 1200.000000 300.000000
8400.000000 1500.000000 300.000000
8400.000000 1800.000000 0.000000
8400.000000 1800.000000 300.000000
8400.000000 2100.000000 0.000000
8100.000000 2100.000000 0.000000
8400.000000 2100.000000 300.000000
8100.000000 2100.000000 300.000000
8700.000000 2100.000000 0.000000
8700.000000 2100.000000 300.000000
8700.000000 1800.000000 0.000000
8700.000000 1800.000000 300.000000
9000.000000 1800.000000 0.000000
9000.000000 2100.000000 0.000000
9000.000000 1800.000000 300.000000
9000.000000 2100.000000 300.000000
8700.000000 1200.000000 0.000000
9000.000000 1200.000000 0.000000
9000.000000 1500.000000 0.000000
8700.000000 1500.000000 0.000000
8700.000000 1200.000000 300.000000
9000.000000 1200.000000 300.000000
9000.000000 1500.000000 300.000000
8700.000000 1500.000000 300.000000
8700.000000 600.000000 0.000000
9000.000000 600.000000 0.000000
9000.000000 900.000000 0.000000
8700.000000 900.000000 0.000000
8700.000000 600.000000 300.000000
9000.000000 600.000000 300.000000
9000.000000 900.000000 300.000000
8700.000000 900.000000 300.000000
8400.000000 600.000000 0.000000
8400.000000 900.000000 0.000000
8400.000000 600.000000 300.000000
8400.000000 900.000000 300.000000
8700.000000 0.000000 0.000000
9000.000000 0.000000 0.000000
9000.000000 300.000000 0.000000
8700.000000 300.000000 0.000000
8700.000000 0.000000 300.000000
9000.000000 0.000000 300.000000
9000.000000 300.000000 300.000000
8700.000000 300.000000 300.000000
8400.000000 300.000000 0.000000
8400.000000 300.000000 300.000000
8400.000000 0.000000 0.000000
8400.000000 0.000000 300.000000
8100.000000 0.000000 0.000000
8100.000000 300.000000 0.000000
8100.000000 0.000000 300.000000
8100.000000 300.000000 300.000000
7800.000000 0.000000 0.000000
7800.000000 300.000000 0.000000
7800.000000 0.000000 300.000000
7800.000000 300.000000 300.000000
8100.000000 600.000000 0.000000
7800.000000 600.000000 0.000000
8100.000000 600.000000 300.000000
7800.000000 600.000000 300.000000
8100.000000 900.000000 0.000000
8100.000000 900.000000 300.000000
7800.000000 900.000000 0.000000
7800.000000 900.000000 300.000000
7500.000000 900.000000 0.000000
7500.000000 900.000000 300.000000
7500.000000 600.000000 0.000000
7500.000000 600.000000 300.000000
7200.000000 600.000000 0.000000
7200.000000 900.000000 0.000000
7200.000000 600.000000 300.000000
7200.000000 900.000000 300.000000
7200.000000 300.000000 0.000000
7500.000000 300.000000 0.000000
7200.000000 300.000000 300.000000
7500.000000 300.000000 300.000000
7500.000000 0.000000 0.000000
7500.000000 0.000000 300.000000
7200.000000 0.000000 0.000000
7200.000000 0.000000 300.000000
6900.000000 0.000000 0.000000
6900.000000 300.000000 0.000000
6900.000000 0.000000 300.000000
6900.000000 300.000000 300.000000
6900.000000 600.000000 0.000000
6900.000000 600.000000 300.000000
6600.000000 300.000000 0.000000
6600.000000 600.000000 0.000000
6600.000000 300.000000 300.000000
6600.000000 600.000000 300.000000
6600.000000 0.000000 0.000000
6600.000000 0.000000 300.000000
6300.000000 0.000000 0.000000
6300.000000 300.000000 0.000000
6300.000000 0.000000 300.000000
6300.000000 300.000000 300.000000
6000.000000 0.000000 0.000000
6000.000000 300.000000 0.000000
6000.000000 0.000000 300.000000
6000.000000 300.000000 300.000000
6300.000000 600.000000 0.000000
6000.000000 600.000000 0.000000
6300.000000 600.000000 300.000000
6000.000000 600.000000 300.000000
6600.000000 900.000000 0.000000
6300.000000 900.000000 0.000000
6600.000000 900.000000 300.000000
6300.000000 900.000000 300.000000
6000.000000 900.000000 0.000000
6000.000000 900.000000 300.000000
6300.000000 1200.000000 0.000000
6000.000000 1200.000000 0.000000
6300.000000 1200.000000 300.000000
6000.000000 1200.000000 300.000000
6600.000000 1200.000000 0.000000
6600.000000 1200.000000 300.000000
6900.000000 900.000000 0.000000
6900.000000 1200.000000 0.000000
6900.000000 900.000000 300.000000
6900.000000 1200.000000 300.000000
6600.000000 2100.000000 0.000000
6900.000000 2100.000000 0.000000
6600.000000 2100.000000 300.000000
6900.000000 2100.000000 300.000000
6900.000000 1800.000000 0.000000
6900.000000 1800.000000 300.000000
6600.000000 1800.000000 0.000000
6600.000000 1800.000000 300.000000
6600.000000 1500.000000 0.000000
6900.000000 1500.000000 0.000000
6600.000000 1500.000000 300.000000
6900.000000 1500.000000 300.000000
6300.000000 1500.000000 0.000000
6000.000000 1500.000000 0.000000
6300.000000 1500.000000 300.000000
6000.000000 1500.000000 300.000000
6300.000000 1800.000000 0.000000
6300.000000 1800.000000 300.000000
6000.000000 1800.000000 0.000000
6000.000000 1800.000000 300.000000
6300.000000 2100.000000 0.000000
6000.000000 2100.000000 0.000000
6300.000000 2100.000000 300.000000
6000.000000 2100.000000 300.000000
5400.000000 2100.000000 0.000000
5700.000000 2100.000000 0.000000
5400.000000 2100.000000 300.000000
5700.000000 2100.000000 300.000000
5700.000000 1800.000000 0.000000
5700.000000 1800.000000 300.000000
5400.000000 1800.000000 0.000000
5400.000000 1800.000000 300.000000
5400.000000 1500.000000 0.000000
5700.000000 1500.000000 0.000000
5400.000000 1500.000000 300.000000
5700.000000 1500.000000 300.000000
5700.000000 1200.000000 0.000000
5700.000000 1200.000000 300.000000
5400.000000 1200.000000 0.000000
5400.000000 1200.000000 300.000000
4800.000000 1200.000000 0.000000
5100.000000 1200.000000 0.000000
5100.000000 1500.000000 0.000000
4800.000000 1500.000000 0.000000
4800.000000 1200.000000 300.000000
5100.000000 1200.000000 300.000000
5100.000000 1500.000000 300.000000
4800.000000 1500.000000 300.000000
5100.000000 1800.000000 0.000000
5100.000000 1800.000000 300.000000
4800.000000 1800.000000 0.000000
4800.000000 1800.000000 300.000000
5100.000000 2100.000000 0.000000
4800.000000 2100.000000 0.000000
5100.000000 2100.000000 300.000000
4800.000000 2100.000000 300.000000
5100.000000 600.000000 0.000000
5400.000000 600.000000 0.000000