<VTKFile type="UnstructuredGrid" version="1.0" byte_order="LittleEndian" header_type="UInt64">
  <UnstructuredGrid>
    <Piece NumberOfPoints="40574" NumberOfCells="18683">
      <CellData Scalars="Scalars_">
        <DataArray type="Float32" Name="Scalars_" format="ascii">
     -85.765305      -85.765526      -85.767380      -85.767151      -85.770805      -85.776154      -85.776375      -85.771027      -85.771461      -85.776794      -85.777435      -85.772125      -85.768494      -85.767822      -85.765984      -85.766655      -85.767555      -85.768669      -85.770485      -85.769386      -85.772995      -85.778282      -85.779335      -85.774071      -85.775360      -85.780579      -85.782021      -85.776848      -85.773315      -85.771797      -85.769997      -85.771523      -85.773247      -85.775169      -85.776917      -85.775024      -85.778519      -85.783653      -85.785461      -85.780380      -85.782417      -85.787445      -85.789589      -85.784622      -85.781242      -85.778999      -85.777267      -85.779533      -85.781967      -85.784546      -85.786209      -85.783653      -85.786987      -85.791885      -85.794327      -85.789497      -85.792145      -85.796906      -85.799606      -85.794922      -85.791733      -85.788910      -85.787270      -85.790123      -85.793098      -85.796181      -85.797737      -85.794678      -85.797813      -85.802422      -85.805344      -85.800812      -85.803909      -85.808357      -85.811455      -85.807083      -85.804115      -85.800880      -85.799355      -85.802620      -85.805954      -85.809357      -85.810791      -85.807426      -85.810333      -85.814621      -85.817856      -85.813652      -85.817017      -85.821144      -85.824478      -85.820427      -85.817688      -85.814217      -85.812805      -85.816299      -85.819832      -85.823387      -85.824715      -85.821190      -85.823875      -85.827843      -85.831230      -85.827347      -85.830833      -85.834641      -85.838066      -85.834335      -85.831802      -85.828255      -85.826958      -85.830528      -85.834106      -85.837677      -85.838898      -85.835350      -85.837830      -85.841484      -85.844910      -85.841324      -85.844803      -85.848312      -85.851707      -85.848259      -85.845932      -85.842422      -85.841225      -85.844757      -85.871559      -85.874596      -85.877693      -85.874710      -85.872704      -85.871689      -85.868484      -85.869514      -85.866280      -85.865227      -85.861923      -85.862991      -85.865112      -85.868355      -85.871445      -85.868248      -85.865013      -85.861816      -85.858475      -85.861732      -85.858421      -85.855080      -85.851700      -85.855103      -85.852867      -85.849411      -85.848267      -85.851738      -85.855171      -85.856277      -85.859657      -85.858574      -85.883743      -85.880745      -85.877815      -85.880859      -85.878906      -85.875832      -85.874840      -85.877930      -85.883942      -85.880966      -85.881927      -85.884888      -85.886780      -85.883850      -85.886688      -85.889572      -85.895164      -85.892403      -85.889648      -85.892464      -85.890633      -85.887787      -85.886856      -85.889709      -85.895226      -85.892502      -85.893410      -85.896118      -85.897896      -85.895210      -85.897873      -85.900505      -85.914742      -85.916901      -85.918884      -85.916832      -85.915398      -85.914658      -85.912476      -85.913239      -85.911003      -85.910217      -85.907890      -85.908699      -85.910301      -85.912560      -85.914810      -85.912628      -85.910355      -85.907959      -85.905548      -85.908005      -85.905579      -85.903076      -85.900513      -85.903069      -85.901352      -85.898773      -85.897888      -85.900490      -85.903023      -85.903870      -85.906319      -85.905487      -85.922539      -85.920769      -85.918839      -85.920746      -85.919464      -85.917473      -85.916763      -85.918793      -85.922600      -85.920738      -85.921364      -85.923172      -85.924248      -85.922554      -85.924179      -85.925674      -85.928192      -85.927017      -85.925819      -85.927269      -85.926483      -85.924881      -85.924370      -85.926048      -85.929085      -85.927620      -85.927971      -85.929337      -85.929718      -85.928574      -85.929169      -85.929939      -85.844101      -85.811760      -85.774956      -85.815521      -85.848587      -85.874886      -85.890511      -85.870110      -85.887321      -85.902946      -85.912750      -85.901009      -85.885414      -85.867058      -85.841469      -85.865364      -85.839813      -85.809311      -85.768562      -85.807167      -85.765495      -85.712997      -85.651588      -85.716705      -85.656883      -85.576408      -85.484596      -85.583771      -85.662949      -85.721100      -85.771622      -85.725204      -85.668175      -85.598282      -85.505478      -85.591927      -85.494667      -85.372704      -85.236633      -85.386452      -85.255539      -85.071442      -84.871162      -85.097893      -85.273987      -85.400627      -85.512810      -85.408501      -85.519470      -85.615288      -85.682014      -85.604332      -85.673378      -85.729469      -85.780060      -85.736176      -85.788635      -85.821815      -85.855377      -85.831177      -85.801300      -85.747673      -85.697258      -85.764595      -85.817192      -85.856422      -85.874184      -85.843102      -85.864182      -85.881226      -85.900154      -85.888580      -85.905708      -85.913216      -85.921570      -85.917023      -85.911140      -85.896248      -85.884476      -85.903694      -85.916168      -85.920555      -85.925949      -85.923691      -85.927742      -85.929512      -85.929359      -85.928551      -85.928902      -85.928902      -85.928169      -85.928841      -85.928467      -85.926323      -85.923889      -85.927505      -85.928902      -85.929016      -85.927994      -85.928902      -85.928436      -85.927200      -85.926010      -85.927727      -85.926758      -85.924637      -85.923096      -85.925552      -85.927811      -85.928520      -85.929489      -85.929489      -85.930145      -85.929298      -85.926918      -85.929138      -85.924988      -85.927467      -85.923576      -85.919083      -85.909370      -85.916611      -85.905823      -85.894920      -85.914413      -85.922211      -85.926445      -85.921089      -85.926178      -85.929543      -85.931686      -85.929962      -85.932663      -85.934471      -85.933754      -85.933052      -85.932091      -85.931938      -85.929276      -85.930077      -85.930527      -85.931763      -85.930870      -85.930573      -85.929092      -85.928352      -85.925583      -85.926819      -85.924141      -85.921402      -85.919571      -85.922554      -85.920815      -85.917625      -85.915558      -85.918922      -85.922501      -85.926041      -85.927322      -85.924133      -85.918770      -85.922867      -85.924545      -85.920708      -85.916916      -85.913399      -85.911140      -85.914795      -85.912567      -85.908798      -85.906372      -85.910248      -85.914536      -85.916710      -85.921028      -85.919052      -85.923584      -85.927948      -85.929352      -85.925308      -85.928192      -85.926857      -85.930511      -85.931396      -85.933922      -85.933632      -85.936005      -85.935539      -85.935959      -85.932961      -85.931976      -85.935493      -85.938354      -85.940430      -85.939468      -85.938179      -85.936050      -85.937447      -85.937790      -85.935242      -85.932892      -85.936836      -85.934349      -85.928719      -85.938568      -85.939667      -85.941574      -85.941620      -85.940361      -85.935921      -85.931419      -85.937553      -85.932899      -85.926086      -85.915344      -85.924698      -85.914200      -85.901733      -85.884621      -85.900902      -85.913261      -85.923462      -85.930023      -85.922340      -85.912476      -85.899948      -85.884071      -85.900330      -85.884186      -85.863235      -85.836639      -85.863297      -85.837326      -85.803696      -85.763031      -85.805168      -85.838463      -85.863739      -85.884163      -85.864410      -85.884506      -85.899773      -85.911560      -85.900024      -85.911797      -85.920387      -85.926247      -85.920227      -85.926727      -85.930649      -85.933846      -85.931633      -85.927582      -85.921349      -85.911858      -85.920593      -85.941216      -85.945000      -85.945618      -85.942215      -85.938263      -85.933823      -85.932220      -85.936935      -85.935425      -85.930466      -85.928589      -85.933762      -85.938568      -85.939987      -85.944092      -85.942940      -85.946854      -85.947685      -85.950722      -85.950249      -85.953094      -85.955345      -85.954872      -85.953133      -85.952713      -85.953842      -85.952103      -85.951729      -85.950462      -85.950813      -85.948219      -85.948395      -85.948128      -85.947327      -85.947983      -85.949554      -85.950058      -85.949516      -85.945885      -85.947556      -85.944016      -85.940964      -85.934486      -85.939224      -85.942177      -85.945580      -85.945862      -85.943604      -85.943718      -85.942734      -85.943275      -85.945038      -85.945724      -85.945885      -85.942932      -85.943314      -85.940193      -85.939362      -85.935257      -85.936470      -85.937431      -85.940704      -85.940811      -85.938080      -85.934677      -85.930725      -85.929253      -85.933578      -85.932236      -85.930695      -85.925781      -85.927597      -85.922653      -85.920609      -85.915314      -85.917549      -85.919685      -85.924576      -85.926346      -85.921700      -85.916946      -85.914734      -85.909904      -85.912270      -85.907845      -85.903870      -85.901299      -85.905365      -85.902809      -85.898659      -85.895958      -85.900185      -85.904938      -85.910034      -85.912430      -85.907455      -85.899696      -85.905029      -85.907562      -85.902351      -85.897499      -85.893188      -85.890366      -85.894753      -85.891945      -85.887482      -85.884544      -85.889091      -85.894218      -85.896988      -85.902428      -85.899773      -85.905579      -85.911484      -85.913879      -85.908112      -85.912987      -85.910583      -85.916206      -85.918457      -85.923828      -85.921768      -85.927132      -85.928986      -85.925163      -85.919609      -85.917366      -85.923096      -85.920944      -85.915054      -85.912682      -85.918716      -85.916435      -85.914101      -85.907791      -85.910255      -85.903961      -85.901367      -85.894951      -85.897667      -85.900352      -85.906517      -85.909027      -85.902985      -85.897064      -85.894310      -85.888542      -85.891403      -85.886185      -85.881561      -85.878525      -85.883224      -85.880226      -85.875443      -85.872322      -85.877190      -85.882698      -85.888680      -85.891510      -85.885643      -85.876717      -85.882912      -85.885811      -85.879723      -85.874115      -85.869156      -85.865952      -85.871002      -85.867867      -85.862724      -85.859459      -85.864700      -85.870621      -85.873680      -85.879990      -85.877052      -85.883804      -85.890709      -85.893410      -85.886620      -85.892204      -85.889427      -85.896088      -85.898743      -85.905289      -85.902756      -85.909325      -85.911728      -85.906891      -85.900200      -85.897629      -85.904442      -85.911049      -85.917389      -85.919601      -85.913383      -85.917969      -85.915695      -85.921791      -85.923943      -85.929596      -85.927574      -85.933006      -85.934898      -85.931053      -85.925507      -85.923401      -85.929062      -85.934349      -85.936234      -85.941040      -85.939262      -85.943802      -85.947952      -85.949493      -85.945457      -85.947029      -85.950920      -85.952225      -85.948494      -85.944366      -85.942741      -85.938065      -85.939827      -85.941505      -85.943069      -85.947258      -85.945877      -85.949829      -85.953362      -85.954292      -85.951004      -85.951965      -85.954971      -85.955345      -85.952682      -85.949486      -85.948471      -85.944504      -85.945778      -85.941605      -85.940102      -85.935280      -85.936989      -85.931976      -85.926605      -85.924545      -85.930077      -85.928101      -85.922409      -85.920212      -85.926048      -85.931564      -85.936729      -85.938469      -85.933464      -85.942192      -85.936394      -85.923309      -85.930862      -85.937393      -85.942688      -85.951241      -85.947197      -85.954803      -85.957832      -85.962845      -85.960640      -85.957840      -85.951027      -85.946625      -85.954559      -85.960625      -85.963028      -85.966888      -85.965195      -85.968552      -85.970940      -85.971619      -85.969681      -85.970543      -85.972061      -85.972229      -85.971077      -85.969246      -85.968262      -85.965034      -85.966568      -85.967598      -85.968178      -85.969986      -85.969810      -85.971260      -85.972099      -85.971664      -85.971100      -85.970634      -85.970947      -85.969955      -85.969879      -85.969337      -85.969818      -85.968369      -85.968231      -85.966415      -85.963707      -85.962936      -85.966141      -85.965508      -85.964439      -85.960121      -85.961784      -85.956734      -85.954369      -85.946831      -85.950058      -85.952621      -85.954735      -85.959908      -85.958527      -85.961700      -85.960953      -85.956520      -85.958000      -85.959152      -85.959892      -85.962158      -85.962120      -85.964142      -85.963615      -85.964424      -85.965408      -85.966042      -85.964310      -85.964165      -85.966377      -85.967796      -85.967072      -85.967537      -85.968575      -85.968849      -85.968704      -85.967194      -85.967545      -85.965965      -85.965401      -85.963326      -85.964081      -85.964561      -85.966202      -85.966049      -85.964706      -85.963005      -85.960915      -85.960243      -85.962578      -85.961876      -85.960938      -85.958214      -85.959328      -85.956421      -85.955154      -85.951736      -85.953140      -85.954422      -85.957527      -85.958435      -85.955536      -85.956451      -85.957108      -85.959450      -85.959091      -85.961296      -85.963066      -85.962685      -85.961304      -85.960854      -85.961754      -85.960144      -85.959839      -85.958946      -85.957443      -85.957466      -85.959427      -85.920921      -85.910217      -85.892807      -85.906960      -85.918579      -85.927689      -85.936226      -85.929588      -85.938179      -85.942802      -85.947800      -85.944794      -85.940430      -85.934708      -85.923958      -85.931892      -85.951920      -85.949417      -85.943047      -85.946983      -85.949799      -85.951485      -85.954117      -85.953491      -85.956123      -85.955887      -85.956955      -85.957886      -85.958130      -85.957687      -85.954193      -85.955559      -85.942673      -85.950554      -85.952950      -85.946205      -85.949394      -85.955002      -85.956619      -85.952103      -85.938080      -85.946045      -85.941963      -85.932281      -85.925903      -85.937363      -85.932419      -85.919212      -85.880882      -85.902336      -85.911209      -85.892487      -85.903854      -85.919800      -85.927750      -85.914505      -85.876328      -85.897644      -85.883614      -85.858047      -85.838829      -85.868759      -85.853767      -85.819595      -85.810089      -85.793930      -85.745659      -85.765167      -85.783119      -85.801018      -85.839088      -85.824730      -85.857941      -85.869385      -85.893394      -85.884361      -85.874817      -85.863998      -85.832794      -85.846077      -85.915840      -85.908875      -85.888969      -85.897705      -85.905296      -85.912361      -85.927254      -85.921814      -85.934769      -85.938873      -85.947861      -85.944847      -85.941353      -85.937096      -85.924652      -85.930145      -85.885735      -85.906700      -85.916473      -85.898308      -85.909103      -85.924896      -85.931725      -85.917801      -85.878212      -85.900238      -85.889252      -85.864441      -85.847046      -85.875511      -85.859398      -85.826454      -85.734352      -85.785385      -85.811638      -85.767776      -85.795372      -85.833588      -85.850708      -85.816528      -85.721909      -85.774185      -85.748245      -85.690353      -85.647163      -85.713669      -85.671143      -85.593094      -84.582268      -84.272850      -83.893227      -84.303619      -84.524872      -84.566422      -84.829399      -84.766098      -84.974884      -85.043877      -85.219574      -85.152985      -85.028534      -84.823174      -84.586388      -84.845436      -85.059120      -85.201698      -85.346466      -85.234924      -85.379120      -85.497017      -85.565781      -85.466629      -85.533356      -85.619553      -85.657555      -85.578560      -85.481850      -85.428955      -85.303261      -85.363693      -85.408966      -85.447197      -85.553665      -85.520943      -85.612000      -85.685867      -85.709236      -85.639771      -85.666298      -85.731117      -85.753311      -85.693680      -85.619339      -85.585701      -85.485756      -85.526886      -85.412216      -85.270370      -85.209770      -85.362160      -85.315826      -85.271645      -85.103737      -85.154114      -84.955490      -84.899223      -84.651428      -84.712029      -84.793564      -84.880325      -85.095428      -85.022568      -85.278641      -85.180717      -84.984535      -85.107040      -85.235939      -85.360611      -85.480408      -85.381241      -85.499481      -85.578178      -85.657684      -85.595390      -85.530846      -85.418007      -85.339828      -85.468529      -85.572357      -85.621925      -85.695236      -85.655914      -85.722992      -85.776703      -85.801216      -85.754097      -85.785675      -85.825912      -85.849518      -85.815964      -85.774109      -85.735435      -85.672935      -85.722099      -85.766632      -85.805191      -85.839554      -85.809174      -85.843422      -85.870888      -85.889328      -85.867195      -85.886986      -85.904594      -85.916763      -85.902916      -85.885498      -85.864929      -85.837456      -85.863716      -85.836617      -85.803032      -85.761246      -85.803375      -85.762634      -85.713966      -85.648994      -85.710114      -85.645508      -85.569122      -85.471260      -85.566299      -85.645668      -85.710548      -85.761574      -85.709366      -84.277718      -83.879158      -83.428452      -83.923439      -84.312759      -84.615555      -84.857864      -84.601761      -84.844711      -85.059258      -85.226181      -85.047859      -84.826683      -84.560272      -84.251312      -84.576424      -85.208420      -85.030067      -84.817024      -85.035286      -85.216919      -85.364159      -85.477875      -85.357002      -85.472626      -85.571335      -85.647942      -85.567719      -85.469490      -85.351761      -85.206360      -85.351570      -84.447563      -84.743324      -84.896500      -84.639198      -84.841003      -85.058029      -85.214455      -85.036995      -84.565651      -84.822708      -84.577263      -84.257927      -83.947159      -84.326141      -84.085808      -83.644257      -82.450294      -83.106041      -83.491081      -82.946236      -83.407715      -83.872414      -84.259789      -83.899704      -83.008545      -83.482048      -82.846832      -82.165474      -81.549736      -82.301643      -81.651039      -80.676361      -80.079704      -75.881096      -78.485306      -80.957466      -80.128281      -81.250122      -81.476646      -82.121407      -82.132057      -82.843475      -82.741653      -82.332130      -82.669373      -82.298035      -81.395340      -83.599663      -83.589783      -83.133446      -83.041367      -83.296059      -83.424774      -83.902199      -83.774048      -84.177917      -84.294632      -84.616699      -84.514877      -84.413948      -84.353546      -84.000031      -84.048798      -82.866554      -83.431969      -83.987518      -83.639015      -83.951805      -84.251747      -84.240952      -83.831345      -82.588814      -83.301674      -83.638634      -83.341751      -82.916687      -83.272003      -82.161743      -81.258293      -78.469963      -80.050964      -82.633179      -83.120506      -81.577003      -80.047737      -76.545273      -78.113663      -75.563484      -75.101913      -75.957954      -76.935097      -76.107216      -85.950424      -85.947533      -85.945930      -85.948845      -85.951515      -85.953957      -85.955490      -85.953072      -85.954628      -85.957016      -85.958534      -85.956184      -85.953598      -85.952011      -85.949142      -85.950768      -85.947662      -85.946014      -85.942589      -85.944267      -85.940567      -85.936539      -85.934799      -85.938866      -85.937172      -85.933090      -85.931396      -85.935516      -85.939293      -85.940933      -85.944374      -85.942757      -85.941162      -85.939598      -85.936104      -85.937675      -85.933884      -85.929749      -85.928139      -85.932289      -85.930740      -85.926567      -85.925056      -85.929237      -85.933075      -85.934563      -85.938080      -85.936600      -85.939835      -85.942802      -85.944260      -85.941299      -85.944359      -85.942810      -85.945755      -85.947289      -85.949982      -85.948463      -85.950951      -85.952446      -85.949478      -85.946983      -85.945534      -85.948051      -85.950363      -85.952492      -85.953888      -85.951775      -85.954704      -85.953224      -85.955315      -85.956772      -85.958664      -85.957237      -85.959000      -85.960396      -85.957619      -85.955833      -85.954453      -85.956261      -85.957939      -85.959267      -85.960785      -85.959488      -85.960922      -85.962265      -85.963501      -85.962196      -85.963478      -85.964752      -85.966003      -85.964767      -85.963432      -85.961975      -85.960617      -85.962105      -85.966057      -85.964691      -85.963341      -85.964752      -85.966049      -85.967232      -85.968437      -85.967300      -85.968521      -85.969597      -85.970688      -85.969681      -85.968559      -85.967339      -85.966019      -85.967308      -85.965904      -85.964340      -85.962952      -85.964561      -85.963188      -85.961792      -85.960098      -85.961525      -85.959702      -85.958237      -85.956192      -85.957695      -85.959190      -85.961159      -85.962601      -85.960670      -85.962120      -85.964005      -85.965355      -85.963531      -85.966133      -85.964874      -85.966629      -85.967812      -85.969276      -85.968185      -85.969536      -85.970535      -85.968414      -85.966980      -85.965691      -85.967194      -85.968536      -85.969673      -85.970772      -85.969711      -85.970757      -85.971687      -85.972565      -85.971733      -85.972557      -85.973282      -85.973793      -85.973206      -85.972488      -85.971603      -85.970711      -85.971710      -85.973373      -85.972794      -85.972313      -85.973061      -85.973625      -85.974052      -85.973984      -85.973763      -85.973534      -85.973518      -85.972542      -85.972855      -85.972969      -85.973373      -85.972992      -85.972832      -85.972435      -85.971771      -85.971527      -85.972382      -85.972008      -85.971375      -85.970222      -85.970993      -85.969749      -85.968857      -85.967278      -85.968277      -85.969086      -85.970428      -85.970848      -85.969673      -85.968239      -85.967506      -85.965675      -85.966553      -85.964592      -85.962357      -85.961212      -85.963577      -85.962410      -85.959930      -85.958542      -85.961113      -85.963409      -85.965462      -85.966568      -85.964615      -85.964233      -85.962097      -85.960693      -85.962898      -85.961494      -85.960037      -85.957726      -85.959236      -85.956734      -85.955177      -85.952377      -85.953979      -85.955551      -85.958252      -85.959717      -85.957077      -85.954155      -85.950943      -85.949303      -85.952568      -85.950951      -85.949310      -85.945953      -85.947632      -85.944008      -85.942284      -85.938293      -85.940048      -85.941811      -85.945717      -85.947418      -85.943558      -85.950706      -85.946983      -85.945290      -85.949081      -85.952545      -85.955696      -85.957161      -85.954094      -85.955574      -85.958542      -85.959816      -85.956955      -85.953766      -85.952271      -85.948639      -85.950226      -85.946335      -85.944649      -85.940300      -85.942070      -85.937439      -85.932426      -85.930473      -85.935577      -85.933685      -85.928497      -85.926514      -85.931770      -85.936646      -85.941147      -85.942917      -85.938484      -85.939362      -85.934799      -85.932938      -85.937553      -85.935753      -85.933945      -85.929230      -85.931076      -85.926018      -85.924118      -85.918602      -85.920563      -85.922539      -85.927933      -85.929855      -85.924522      -85.918793      -85.912666      -85.910522      -85.916733      -85.914688      -85.912659      -85.906296      -85.908401      -85.901703      -85.899513      -85.892342      -85.894630      -85.896950      -85.903923      -85.906151      -85.899284      -85.910652      -85.903992      -85.901634      -85.908401      -85.914818      -85.920860      -85.922928      -85.916977      -85.919128      -85.924988      -85.927032      -85.921272      -85.915154      -85.912903      -85.906349      -85.908707      -85.901978      -85.895042      -85.892456      -85.899506      -85.897034      -85.894562      -85.887276      -85.889862      -85.882568      -85.879852      -85.872437      -85.875282      -85.878128      -85.885284      -85.888000      -85.880966      -85.874092      -85.871124      -85.864456      -85.867546      -85.861511      -85.856171      -85.852867      -85.858307      -85.855095      -85.849548      -85.846222      -85.851875      -85.858261      -85.861359      -85.868156      -85.865181      -85.862213      -85.859253      -85.852074      -85.855164      -85.848656      -85.842896      -85.839569      -85.845444      -85.842247      -85.836258      -85.832962      -85.839073      -85.845955      -85.849007      -85.856316      -85.853401      -85.861191      -85.863976      -85.871780      -85.869141      -85.877068      -85.884834      -85.887238      -85.879585      -85.882126      -85.889656      -85.892105      -85.884689      -85.877151      -85.869598      -85.866776      -85.874458      -85.861412      -85.853073      -85.850456      -85.858932      -85.867371      -85.875610      -85.877846      -85.869720      -85.872131      -85.880135      -85.882469      -85.874580      -85.866524      -85.863945      -85.855736      -85.858444      -85.850517      -85.847672      -85.839951      -85.842934      -85.835922      -85.829697      -85.826469      -85.832809      -85.829742      -85.823288      -85.820152      -85.826736      -85.834137      -85.837021      -85.844872      -85.842117      -85.839432      -85.836815      -85.828560      -85.831314      -85.823784      -85.817085      -85.814087      -85.820900      -85.818100      -85.811172      -85.808350      -85.815392      -85.823296      -85.825890      -85.834267      -85.831810      -85.840675      -85.849663      -85.851868      -85.843002      -85.847900      -85.845421      -85.854156      -85.856514      -85.865067      -85.862839      -85.871300      -85.873428      -85.869247      -85.860672      -85.858582      -85.867264      -85.875595      -85.877487      -85.885300      -85.883499      -85.890907      -85.897812      -85.899483      -85.892639      -85.894440      -85.901222      -85.903015      -85.896301      -85.889107      -85.881462      -85.879440      -85.887169      -85.897354      -85.890083      -85.887863      -85.895226      -85.893135      -85.885681      -85.883545      -85.891098      -85.904861      -85.898209      -85.900169      -85.906754      -85.908691      -85.902176      -85.904221      -85.910660      -85.922241      -85.916664      -85.914757      -85.920387      -85.918564      -85.912880      -85.911049      -85.916771      -85.926926      -85.922058      -85.923805      -85.928642      -85.930382      -85.925591      -85.927399      -85.932159      -85.918686      -85.923615      -85.925247      -85.920349      -85.915031      -85.909256      -85.907516      -85.913330      -85.911682      -85.905830      -85.904205      -85.910095      -85.915520      -85.917076      -85.922028      -85.920494      -85.919022      -85.917610      -85.912590      -85.914024      -85.908577      -85.902641      -85.901154      -85.907120      -85.905731      -85.899734      -85.898399      -85.904427      -85.909950      -85.915001      -85.916267      -85.911232      -85.913811      -85.908737      -85.907616      -85.912697      -85.911674      -85.910744      -85.905640      -85.906586      -85.901009      -85.900047      -85.893929      -85.894905      -85.895981      -85.902061      -85.903198      -85.897141      -85.890549      -85.883385      -85.882149      -85.889351      -85.888245      -85.887238      -85.879967      -85.881004      -85.873184      -85.872101      -85.863670      -85.864807      -85.866051      -85.874374      -85.875664      -85.867401      -85.878540      -85.870407      -85.868858      -85.877060      -85.884720      -85.891838      -85.893211      -85.886147      -85.887657      -85.894669      -85.896202      -85.889244      -85.881767      -85.880112      -85.872055      -85.873787      -85.865356      -85.856575      -85.854652      -85.863541      -85.861809      -85.8601