<VTKFile type="UnstructuredGrid" version="1.0" byte_order="LittleEndian" header_type="UInt64">
  <UnstructuredGrid>
    <Piece NumberOfPoints="40574" NumberOfCells="18683">
      <CellData Scalars="Scalars_">
        <DataArray type="Float32" Name="Scalars_" format="ascii">
     17.174402      17.174536      17.143845      17.143707      17.091127      17.026398      17.026545      17.091269      17.091551      17.026840      17.027283      17.091976      17.144531      17.144119      17.174807      17.175215      17.175758      17.176439      17.145775      17.145084      17.092545      17.027874      17.028616      17.093256      17.094112      17.029509      17.030554      17.095116      17.147583      17.146608      17.177261      17.178223      17.179327      17.180574      17.149969      17.148703      17.096266      17.031752      17.033106      17.097567      17.099020      17.034618      17.036289      17.100628      17.152948      17.151382      17.181971      17.183514      17.185211      17.187061      17.156544      17.154667      17.102394      17.038124      17.040123      17.104319      17.106407      17.042290      17.044628      17.108660      17.160774      17.158577      17.189070      17.191240      17.193573      17.196074      17.165670      17.163137      17.111082      17.047138      17.049826      17.113676      17.116446      17.052694      17.055746      17.119396      17.171257      17.168375      17.198748      17.201595      17.204620      17.207830      17.177563      17.174318      17.122528      17.058985      17.062414      17.125847      17.129358      17.066038      17.069860      17.133060      17.184622      17.180998      17.211226      17.214813      17.218594      17.222574      17.192465      17.188444      17.136963      17.073881      17.078110      17.141068      17.145374      17.082544      17.087191      17.149893      17.201118      17.196688      17.226755      17.231142      17.235739      17.240549      17.210613      17.205759      17.154621      17.092051      17.097128      17.159565      17.164728      17.102425      17.107943      17.170109      17.220976      17.215685      17.245575      17.250820      17.214060      17.152809      17.160093      17.221230      17.271385      17.300869      17.293819      17.264294      17.257427      17.286997      17.280399      17.250786      17.200380      17.207109      17.145739      17.138884      17.132250      17.193876      17.187595      17.125837      17.119648      17.113684      17.175714      17.181543      17.232224      17.226486      17.256285      17.261974      17.267889      17.238184      17.244371      17.274031      17.175268      17.167582      17.228617      17.236212      17.286224      17.278696      17.308142      17.315636      17.331264      17.323343      17.293964      17.301910      17.252005      17.244011      17.183144      17.191193      17.207762      17.199406      17.260181      17.268532      17.318386      17.310055      17.339388      17.347708      17.364895      17.356215      17.326897      17.335569      17.285685      17.277039      17.216242      17.224823      17.348097      17.284847      17.292849      17.356886      17.408581      17.438715      17.429258      17.399332      17.390060      17.419817      17.410419      17.380798      17.330231      17.339197      17.276587      17.268133      17.259546      17.321239      17.312258      17.250879      17.242176      17.233479      17.294453      17.303318      17.353348      17.344393      17.373739      17.382732      17.391855      17.362415      17.371572      17.401093      17.307777      17.300518      17.365513      17.373922      17.426857      17.417768      17.448158      17.457556      17.476078      17.466875      17.435804      17.444567      17.389860      17.382061      17.314537      17.320698      17.330809      17.326159      17.397257      17.404175      17.461348      17.453098      17.485128      17.493988      17.510969      17.502615      17.469267      17.476803      17.416286      17.410545      17.334526      17.337185      16.009914      15.815515      15.704181      15.912857      16.094883      16.261967      16.331940      16.178503      16.247135      16.388783      16.434622      16.303177      16.157461      16.090609      15.909589      15.988868      15.783624      15.688190      15.403478      15.522109      15.178625      14.721680      14.515643      15.025181      14.852089      14.285643      14.030407      14.657604      15.112725      15.267690      15.577016      15.447834      15.298036      15.124628      14.735995      14.936330      14.439848      13.748798      13.439727      14.196754      13.926001      13.101944      12.733582      13.624936      14.252149      14.508944      14.924184      14.692795      15.020197      15.291512      15.490453      15.235055      15.417654      15.572696      15.796432      15.657056      15.870646      15.993406      16.176338      16.072048      15.945528      15.722508      15.544093      15.792551      16.036116      16.268942      16.366741      16.161346      16.264696      16.349579      16.513165      16.447273      16.617252      16.665710      16.805916      16.772564      16.731140      16.557690      16.485102      16.680317      16.852619      16.885712      17.021719      17.002333      17.131392      17.242334      17.244488      17.140676      17.147163      17.244898      17.243771      17.151197      17.048027      16.933245      16.912294      17.036766      17.061152      16.961271      16.949341      17.056005      17.153090      17.241301      17.237665      17.153131      17.151579      17.233030      17.227547      17.148668      17.064512      17.063868      16.969645      16.974991      16.879751      16.778439      16.759941      16.868454      16.832361      16.852913      16.735722      16.704721      16.566671      16.609720      16.475155      16.418909      16.520412      16.643957      16.670778      16.556448      16.584753      16.691378      16.706760      16.606590      16.623016      16.634926      16.725166      16.717783      16.808001      16.811428      16.894400      16.894333      16.892160      16.801752      16.792116      16.887465      16.977776      16.978403      17.060810      17.063400      17.144606      17.221350      17.214561      17.139580      17.133757      17.207293      17.199642      17.127277      17.052135      16.974537      16.977222      17.056984      17.040087      16.965668      16.970612      17.046450      17.120274      17.191694      17.183527      17.112854      17.105120      17.175209      17.166798      17.097153      17.025869      17.033188      16.959902      16.953478      16.880064      16.805437      16.809196      16.885311      16.892721      16.889605      16.811651      16.812510      16.729523      16.731369      16.648081      16.643070      16.650494      16.731140      16.729206      16.650753      16.569155      16.483009      16.476879      16.566254      16.552032      16.560722      16.467596      16.454565      16.347694      16.366053      16.252144      16.226875      16.272253      16.380016      16.390249      16.287922      16.172035      16.148888      16.003872      16.037523      15.878407      15.688297      15.619328      15.829969      15.772725      15.538507      15.444433      15.705606      15.915397      15.963459      16.120350      16.085636      16.043858      15.994002      15.792294      15.858704      15.627457      15.335627      15.210540      15.537042      15.433042      15.067584      14.905157      15.314061      15.625395      15.714967      15.934919      15.865294      16.055449      16.111118      16.257792      16.212595      16.348640      16.471239      16.500130      16.385206      16.414289      16.522551      16.539557      16.437077      16.324167      16.195618      16.157406      16.294558      16.399775      16.318270      16.318724      16.402554      16.481695      16.557529      16.551899      16.477255      16.471960      16.545624      16.538841      16.465971      16.391039      16.395872      16.316341      16.313169      16.231300      16.232117      16.141750      16.144213      16.050589      15.949133      15.936273      16.043657      16.033678      15.919283      15.897513      16.020168      16.129715      16.137039      16.231270      16.228468      16.223385      16.215649      16.105516      16.119362      16.002588      15.870234      15.836630      15.980330      15.952725      15.795792      15.746716      15.919024      16.065212      16.087662      16.204840      16.190481      16.299768      16.397312      16.401691      16.308336      16.314087      16.317432      16.403980      16.403795      16.487198      16.485083      16.562351      16.566174      16.568768      16.487772      16.486498      16.569868      16.649240      16.725874      16.721409      16.646273      16.642117      16.637003      16.709927      16.716030      16.788620      16.781761      16.852951      16.860373      16.867447      16.794956      16.800621      16.874056      16.946541      16.939209      17.010380      17.018238      17.089027      17.158344      17.149895      17.080809      17.072550      17.141487      17.133156      17.064297      16.994280      16.923763      16.931587      17.002373      16.978052      16.907795      16.915812      16.986156      17.056089      17.124926      17.116825      17.047962      17.039946      17.108871      17.101084      17.032061      16.962042      16.970001      16.899767      16.891769      16.821533      16.751345      16.759216      16.829506      16.845280      16.837440      16.766962      16.774508      16.703255      16.696144      16.624630      16.631119      16.617668      16.688711      16.681047      16.610350      16.602776      16.673233      16.665335      16.595024      16.587166      16.579262      16.649500      16.657408      16.727564      16.719730      16.790131      16.797838      16.805660      16.735470      16.743412      16.813570      16.883844      16.876020      16.946497      16.954199      17.024328      17.093475      17.086058      17.016766      17.009386      17.078840      17.071829      17.002201      16.931583      16.860777      16.868324      16.938953      16.917418      16.846197      16.853397      16.924402      16.995218      17.065031      17.058453      16.988443      16.981884      17.052092      17.045954      16.975542      16.904072      16.910639      16.839190      16.832382      16.760870      16.689669      16.696951      16.767918      16.782562      16.775152      16.704401      16.712000      16.641653      16.633896      16.563498      16.571358      16.555717      16.626259      16.618765      16.548044      16.477337      16.406420      16.414263      16.485132      16.500877      16.492992      16.422110      16.429913      16.358095      16.350523      16.277859      16.284994      16.270466      16.342817      16.335037      16.262892      16.189659      16.196835      16.121525      16.114988      16.038519      15.959894      15.964213      16.044121      16.048969      15.967465      15.969422      16.052893      16.132942      16.127554      16.203690      16.210123      16.216019      16.221247      16.141178      16.137541      16.055691      15.969822      15.968363      16.057137      16.056971      15.964700      15.958439      16.054901      16.144751      16.143656      16.225655      16.229071      16.308960      16.303892      16.379238      16.385447      16.459431      16.531670      16.524208      16.452457      16.445158      16.516542      16.508745      16.437616      16.365459      16.291782      16.298122      16.372540      13.737805      13.528350      13.314657      13.546406      13.775288      13.994348      14.144618      13.945165      14.088486      14.271098      14.377036      14.208846      14.035371      13.899446      13.708823      13.860639      13.987804      14.149139      14.243873      14.093822      14.181743      14.254212      14.386779      14.322296      14.461949      14.518456      14.647340      14.598403      14.538351      14.392974      14.309416      14.465288      14.614799      14.757233      14.812186      14.678317      14.730214      14.772202      14.892455      14.856742      14.977946      15.008014      15.119094      15.094141      15.062189      14.939995      14.892743      15.021952      14.971929      14.910369      14.763484      14.834544      14.690081      14.537686      14.444709      14.608648      14.510533      14.333261      14.200356      14.392968      14.573548      14.744151      14.835235      14.677342      15.130031      14.985757      14.906738      15.062674      15.212505      15.356045      15.401320      15.268569      15.313848      15.437540      15.466101      15.350005      15.229066      15.184855      15.050518      15.103183      15.145598      15.264307      15.291977      15.179346      15.205777      15.226045      15.329212      15.313272      15.416932      15.428865      15.525177      15.516926      15.504847      15.400424      15.378460      15.488196      15.593484      15.694233      15.701690      15.605275      15.613324      15.618245      15.708138      15.706161      15.795490      15.794943      15.878793      15.881436      15.882622      15.794104      15.790396      15.882050      15.879373      15.874193      15.774143      15.783916      15.683215      15.577234      15.555690      15.667969      15.647719      15.527874      15.492650      15.621566      15.742224      15.854430      15.866055      15.760477      15.162484      14.896590      14.732306      15.035064      15.306494      15.543579      15.613075      15.402084      15.482513      15.671357      15.719824      15.549736      15.359692      15.151012      15.034967      15.269795      15.496449      15.328216      15.247851      15.434547      15.605498      15.759731      15.792203      15.651345      15.688641      15.818237      15.838720      15.718584      15.588469      15.448697      15.394478      15.547226      14.695437      14.810944      14.980539      14.881004      15.059926      15.143714      15.300085      15.231544      15.047521      15.148211      14.958496      14.836344      14.617006      14.761012      14.556807      14.391089      13.959338      14.193698      14.444857      14.239780      14.515008      14.689895      14.926503      14.781724      14.404479      14.609229      14.306900      14.060073      13.707936      13.996257      13.681920      13.354467      12.694027      12.320094      11.849319      12.261377      12.640387      13.000695      13.364283      13.038216      13.378486      13.673653      13.936124      13.668623      13.385004      13.077867      12.727157      13.066093      13.889455      13.636540      13.378958      13.657459      13.915244      14.158139      14.345343      14.124207      14.300664      14.502657      14.634358      14.449131      14.252777      14.042596      13.856114      14.086323      12.766292      13.062576      13.320685      13.055528      13.339134      13.574795      13.816605      13.607237      13.074500      13.361594      13.063244      12.741539      12.383581      12.745247      12.419307      12.014430      10.998838      11.543782      11.963720      11.478368      11.935897      12.367937      12.740242      12.352573      11.389491      11.904733      11.438513      10.868654      10.280320      10.919854      10.370513      9.649295      3.023697      1.219865      -0.563222      1.591511      3.059641      3.850902      5.215493      4.359393      5.578232      6.435001      7.525205      6.703286      5.623343      4.373118      2.843783      4.315948      5.642800      6.766496      7.800560      6.831274      7.889234      8.825441      9.551979      8.727507      9.483267      10.219184      10.799220      10.125970      9.361547      8.654804      7.729022      8.497541      9.162235      9.751779      10.514931      9.972460      10.684241      11.306871      11.759989      11.181003      11.638154      12.176734      12.574628      12.076823      11.496993      11.014741      10.295895      10.823815      10.044967      9.147194      8.527250      9.470504      8.881244      8.244171      7.209114      7.892974      6.776901      6.048755      4.756773      5.523553      6.243916      6.937800      8.116410      7.455080      9.689909      8.851360      7.740993      8.690406      9.737200      10.824972      11.538218      10.600810      11.348204      12.156307      12.689738      11.992518      11.303206      10.555902      9.815498      10.649647      11.368862      11.945753      12.496396      11.986978      12.516582      12.969027      13.367551      12.966825      13.424178      13.768225      14.162292      13.876780      13.541288      13.019809      12.545980      13.148368      13.726735      14.258011      14.499960      14.040726      14.309248      14.538054      14.884502      14.707397      15.060859      15.193559      15.461327      15.364626      15.251639      14.905739      14.725312      15.120399      14.968821      14.794744      14.275960      14.516479      13.976974      13.360908      12.936263      13.651896      13.277483      12.445229      11.879686      12.848164      13.686284      14.370369      14.595975      14.000367      7.839043      5.046859      3.506994      6.786883      9.564948      11.473955      11.933686      10.221345      10.850744      12.372071      12.783595      11.440993      9.677974      7.618743      6.408540      8.802861      11.173028      9.647991      8.694375      10.466730      11.985633      13.164835      13.514073      12.481967      12.929769      13.830911      14.115922      13.330413      12.358177      11.231035      10.490265      11.801705      5.010983      6.467027      7.542017      6.229378      7.605037      8.743456      10.005637      9.069191      6.804108      8.005076      6.306874      4.833206      3.056092      4.738061      3.353215      1.472699      -3.049753      -0.653340      1.176486      -0.898339      1.286398      3.166760      5.460014      3.972197      0.627613      2.350941      -0.838455      -3.260018      -5.523086      -3.148670      -5.742918      -8.757199      -8.722470      -20.565142      -12.323917      -6.854730      -10.567821      -7.138560      -5.622818      -3.870410      -4.264129      -1.775436      -1.964165      -3.185602      -3.138477      -4.275304      -5.655748      0.851070      0.125259      -1.563540      -1.052717      -0.074353      0.414557      2.354284      1.718126      3.376320      4.074059      5.595835      4.885740      4.124187      3.331107      1.778670      2.570249      -4.665884      -2.517298      0.105699      -1.385224      0.331438      1.703061      2.316149      0.567062      -3.977314      -1.478565      -0.984406      -2.124139      -4.016275      -2.802190      -7.059125      -9.803990      -17.446501      -13.125062      -4.814624      -2.880214      -7.229638      -11.812951      -21.699739      -17.533279      -28.019932      -29.656868      -25.742939      -21.833254      -25.367376      15.411026      15.492787      15.485577      15.404007      15.321078      15.236703      15.243103      15.327828      15.334235      15.249047      15.254364      15.340147      15.424206      15.417802      15.499847      15.506643      15.587570      15.580474      15.659791      15.667100      15.745347      15.822438      15.814952      15.737911      15.730472      15.807526      15.800208      15.723091      15.645018      15.652405      15.573214      15.565881      15.558558      15.551311      15.630498      15.637696      15.715824      15.793045      15.786073      15.708718      15.701815      15.779325      15.772833      15.695148      15.616661      15.623471      15.544203      15.537283      15.456927      15.375511      15.382533      15.463919      15.478309      15.471066      15.389671      15.396857      15.314113      15.307044      15.223107      15.229996      15.216146      15.299966      15.292960      15.209206      15.124188      15.037864      15.044511      15.131010      15.144434      15.137794      15.051054      15.057374      14.968781      14.962856      14.873197      14.878655      14.867327      14.956618      14.950202      14.861197      14.770864      14.776658      14.684666      14.679246      14.586412      14.492452      14.497064      14.591432      14.595911      14.501042      14.504159      14.599644      14.693987      14.787031      14.782104      14.689642      14.699865      14.794505      14.791242      14.697480      14.602387      14.506152      14.506710      14.603858      14.603725      14.505473      14.502018      14.601604      14.700068      14.700845      14.796554      14.797074      14.892365      14.985781      14.982966      14.890639      14.887600      14.883525      14.974236      14.979035      15.068758      15.063330      15.150807      15.156768      15.162150      15.073470      15.077245      15.166757      15.170359      15.079823      15.080902      15.172688      15.172227      15.173433      15.080131      15.077097      14.979272      14.984361      14.886114      14.878732      14.890514      14.986845      14.987186      14.892450      14.795701      14.792008      14.691553      14.697130      14.597043      14.495850      14.486391      14.589516      14.578405      14.472964      14.454780      14.562994      14.670177      14.775598      14.785501      14.682784      14.630310      14.742803      14.761626      14.652977      14.542445      14.430914      14.400288      14.515781      14.481865      14.361645      14.313520      14.439376      14.564327      14.601154      14.718214      14.686803      14.805758      14.920667      14.942530      14.832162      14.852514      14.867765      14.971040      14.959036      15.062236      15.071320      15.168641      15.162173      15.152238      15.049189      15.031413      15.138145      15.241135      15.251885      15.348370      15.340665      15.436975      15.530236      15.532644      15.441902      15.444189      15.532865      15.531289      15.444302      15.354966      15.263134      15.259015      15.352958      15.264765      15.354852      15.353004      15.264351      15.262271      15.258850      15.345390      15.349756      15.435261      15.430084      15.513047      15.518908      15.524046      15.439526      15.442636      15.528255      15.611836      15.693506      15.687575      15.606688      15.600816      15.594394      15.674239      15.681106      15.759902      15.752707      15.829923      15.837340      15.844609      15.766836      15.773393      15.851639      15.784813      15.864534      15.858322      15.779437      15.698731      15.616058      15.619114      15.703054      15.706249      15.620724      15.620563      15.708047      15.792795      15.789336      15.870133      15.874950      15.954708      15.948827      16.025642      16.032316      16.108059      16.182251      16.174685      16.100836      16.093407      16.167027      16.159336      16.085846      16.011326      15.935554      15.942399      16.018612      15.928404      16.003868      15.996313      15.921046      15.913563      15.906028      15.981164      15.988727      16.062994      16.055485      16.129145      16.136530      16.144047      16.070585      16.078220      16.151661      16.224394      16.296616      16.289267      16.216881      16.209507      16.202297      16.275099      16.282089      16.354437      16.347698      16.420235      16.426702      16.433386      16.361380      16.368517      16.440275      16.383301      16.454626      16.447359      16.375830      16.304113      16.232019      16.239723      16.311737      16.319454      16.247465      16.255207      16.327234      16.398623      16.390907      16.462059      16.469635      16.540506      16.611431      16.604277      16.533121      16.525908      16.518881      16.590546      16.597311      16.668964      16.662472      16.734728      16.740942      16.747375      16.675665      16.682570      16.754019      16.825785      16.819401      16.891586      16.897720      16.969421      17.040039      17.034346      16.963520      16.957842      17.028875      17.023624      16.952385      16.879982      16.885674      16.813234      16.807287      16.801563      16.796062      16.869267      16.874514      16.947149      17.018593      17.013779      16.942133      16.937334      17.009178      17.004789      16.932749      16.859430      16.864239      16.790783      16.785727      16.712088      16.717411      16.644314      16.638710      16.565641      16.492846      16.499027      16.571533      16.577650      16.505432      16.512053      16.583990      16.656199      16.728731      16.722960      16.650145      16.623272      16.697468      16.693045      16.618584      16.544392      16.470444      16.475689      16.549353      16.554548      16.481173      16.486893      16.559980      16.633335      16.628189      16.702118      16.706989      16.780891      16.776278      16.850464      16.854839      16.928377      17.000610      16.996635      16.924217      16.920263      16.992863      16.989288      16.916513      16.842348      16.846300      16.771881      16.767702      16.763739      16.759989      16.835066      16.838604      16.912966      16.985910      16.982723      16.909616      16.906464      16.979727      16.976915      16.903502      16.828596      16.831732      16.756451      16.753120      16.677555      16.602125      16.605898      16.681099      16.688841      16.684860      16.609898      16.614126      16.539665      16.535175      16.460682      16.465443      16.456169      16.530924      16.526909      16.451900      16.377048      16.381577      16.307066      16.302273      16.227482      16.152576      16.157902      16.232542      16.237871      16.163500      16.169365      16.243464      16.317436      16.391396      16.386360      16.312122      16.341175      16.413994      16.407984      16.334881      16.328821      16.402210      16.396681      16.323004      16.175486      16.249311      16.255409      16.181852      16.188454      16.261745      16.268314      16.195274      16.048098      16.121916      16.114870      16.040863      16.033812      16.108028      16.101410      16.026964      15.876482      15.952028      15.959072      15.883685      15.891038      15.966297      15.973674      15.898501      15.938593      15.862662      15.869465      15.945193      16.020344      16.095030      16.088903      16.013971      16.007858      16.083042      16.077457      16.002024      15.926173      15.932246      15.856103      15.849809      15.843801      15.838096      15.914907      15.920388      15.996476      16.072159      16.067154      15.991229      15.986292      16.062452      16.058060      15.981673      15.904902      15.827658      15.832710      15.909740      15.822951      15.900400      15.896244      15.818601      15.814617      15.811008      15.889000      15.892442      15.969807      15.966536      16.043695      16.046795      16.050224      15.973425      15.977382      16.053982      16.130285      16.206379      16.203026      16.126730      16.123487      16.120558      16.197208      16.199968      16.276323      16.273729      16.350204      16.352634      16.355331      16.279198      16.282354      16.358295      16.289501      16.365011      16.361521      16.285789      16.210026      16.134148      16.138311      16.213964      16.218187      16.142775      16.147532      16.222694      16.297745      16.293486      16.368765      16.372776      16.447880      16.523130      16.519588      16.444107      16.440582      16.437307      16.513218      16.516285      16.592165      16.589294      16.665537      16.668221      16.671118      16.595259      16.598579      16.674229      16.749998      16.747082      16.822920      16.825661      16.900732      16.974289      16.971840      16.898148      16.895750      16.969568      16.967472      16.893534      16.818018      16.820374      16.744368      16.741856      16.739544      16.737429      16.813873      16.815851      16.891497      16.965546      16.963791      16.889639      16.887955      16.962202      16.960777      16.886446      16.810471      16.812080      16.735512      16.733791      16.656902      16.658747      16.582024      16.580044      16.503311      16.426710      16.428984      16.505432      16.507792      16.431507      16.434282      16.510386      16.586649      16.663063      16.660801      16.584225      16.575430      16.652605      16.651585      16.574333      16.497179      16.420135      16.421402      16.498358      16.499773      16.422918      16.424688      16.501423      16.578285      16.576748      16.653831      16.655264      16.732264      16.730930      16.807798      16.809044      16.885109      16.959517      16.958418      16.883942      16.882944      16.957478      16.956696      16.882114      16.805847      16.806734      16.729788      16.728838      16.728079      16.727509      16.804609      16.805140      16.881453      16.956072      16.955606      16.880957      16.880625      16.955296      16.955139      16.880461      16.804079      16.804256      16.727131      16.726940      16.649546      16.572140      16.572359      16.649750      16.650768      16.650158      16.572798      16.573456      16.496237      16.495529      16.418364      16.419123      16.417858      16.495058      16.494822      16.417604      16.340454      16.340725      16.263601      16.263311      16.186102      16.108749      16.109079      16.186