<VTKFile type="UnstructuredGrid" version="1.0" byte_order="LittleEndian" header_type="UInt64">
  <UnstructuredGrid>
    <Piece NumberOfPoints="40574" NumberOfCells="18683">
      <CellData Scalars="Scalars_">
        <DataArray type="Float32" Name="Scalars_" format="ascii">
     22.204254      22.204353      22.176147      22.176046      22.129347      22.074396      22.074503      22.129450      22.129654      22.074718      22.075041      22.129963      22.176645      22.176346      22.204550      22.204844      22.205238      22.205734      22.177549      22.177046      22.130377      22.075472      22.076012      22.130894      22.131517      22.076664      22.077427      22.132248      22.178864      22.178154      22.206331      22.207029      22.207834      22.208744      22.180603      22.179680      22.133089      22.078302      22.079294      22.134039      22.135101      22.080402      22.081631      22.136280      22.182783      22.181637      22.209764      22.210894      22.212137      22.213497      22.185421      22.184044      22.137577      22.082979      22.084452      22.138992      22.140530      22.086052      22.087780      22.142193      22.188540      22.186920      22.214975      22.216574      22.218298      22.220152      22.192162      22.190287      22.143986      22.089642      22.091639      22.145908      22.147968      22.093773      22.096050      22.150166      22.196316      22.194172      22.222136      22.224255      22.226513      22.228912      22.201029      22.198601      22.152506      22.098473      22.101046      22.154991      22.157627      22.103771      22.106653      22.160416      22.206331      22.203606      22.231459      22.234156      22.237007      22.240017      22.212255      22.209215      22.163361      22.109695      22.112904      22.166470      22.169741      22.116280      22.119827      22.173183      22.218830      22.215460      22.243187      22.246523      22.250031      22.253710      22.226089      22.222372      22.176798      22.123552      22.127457      22.180590      22.184563      22.131546      22.135822      22.188721      22.234062      22.229984      22.257566      22.261606      22.223280      22.171307      22.177202      22.229031      22.273653      22.300835      22.295231      22.268000      22.262552      22.289833      22.284636      22.257309      22.212399      22.217735      22.165621      22.160147      22.154879      22.207266      22.202335      22.149815      22.144953      22.140291      22.193066      22.197603      22.242781      22.238327      22.265829      22.270241      22.274843      22.247425      22.252268      22.279640      22.189636      22.183311      22.234993      22.241169      22.285585      22.279514      22.306646      22.312666      22.325333      22.318893      22.291868      22.298363      22.254156      22.247557      22.196175      22.202929      22.217081      22.209898      22.260971      22.267998      22.311985      22.305067      22.331984      22.338842      22.353189      22.345913      22.319113      22.326448      22.282684      22.275236      22.224474      22.232077      22.340338      22.290672      22.299704      22.349281      22.392233      22.418524      22.409712      22.383369      22.374676      22.401070      22.392609      22.366159      22.322937      22.331553      22.281782      22.273048      22.264482      22.314503      22.306253      22.256094      22.247892      22.239885      22.290339      22.298197      22.341738      22.333992      22.360674      22.368362      22.376249      22.349684      22.357826      22.384333      22.318129      22.308861      22.358376      22.367603      22.410427      22.401255      22.427502      22.436632      22.455320      22.445910      22.419737      22.429173      22.386408      22.376953      22.327484      22.336906      22.355850      22.346371      22.395950      22.405561      22.448364      22.438719      22.464853      22.474497      22.494055      22.484234      22.458090      22.467882      22.424904      22.415220      22.365313      22.374729      21.692215      21.610033      21.585283      21.674194      21.753641      21.826584      21.833748      21.765884      21.773932      21.837603      21.838764      21.778551      21.713848      21.705130      21.628756      21.642477      21.560753      21.540518      21.433544      21.462902      21.340496      21.181955      21.118586      21.297655      21.245926      21.043550      20.955431      21.183989      21.352276      21.397070      21.514366      21.481180      21.439632      21.388126      21.231829      21.297749      21.110313      20.852661      20.733456      21.023102      20.920218      20.595661      20.436445      20.799103      21.057692      21.152569      21.324755      21.247223      21.396860      21.524803      21.577103      21.461082      21.512474      21.553267      21.649954      21.618143      21.712624      21.736267      21.815372      21.799213      21.777023      21.681318      21.640656      21.747494      21.845207      21.933517      21.944859      21.864822      21.878941      21.888523      21.956333      21.952236      22.019672      22.019419      22.078569      22.082117      22.084152      22.017649      22.012877      22.084360      22.149427      22.145618      22.203411      22.209696      22.266697      22.321592      22.312723      22.258804      22.250538      22.303680      22.294514      22.241976      22.188904      22.134733      22.140654      22.196438      22.172596      22.120720      22.128038      22.180923      22.233191      22.285271      22.275993      22.224245      22.215197      22.266716      22.257473      22.206097      22.155233      22.164007      22.112909      22.104725      22.054106      22.002798      22.008711      22.061363      22.073780      22.067978      22.013622      22.017288      21.957731      21.956911      21.897165      21.894373      21.897459      21.954287      21.950199      21.895721      21.892345      21.944935      21.938738      21.887650      21.881907      21.875338      21.924314      21.931808      21.980951      21.972794      22.021208      22.029802      22.038212      21.988756      21.996088      22.046349      22.096260      22.087601      22.137386      22.146341      22.196987      22.248293      22.239202      22.187904      22.178885      22.230223      22.221375      22.169954      22.119474      22.069977      22.078819      22.128416      22.101812      22.052301      22.061123      22.110598      22.161139      22.212671      22.204132      22.152458      22.143930      22.195766      22.187586      22.135571      22.084625      22.093149      22.043552      22.034903      21.986267      21.938459      21.947153      21.994980      22.012499      22.003738      21.955814      21.964386      21.916397      21.908173      21.860437      21.868130      21.852386      21.899738      21.891172      21.844084      21.796843      21.749044      21.756296      21.804722      21.819141      21.812201      21.762968      21.768890      21.716633      21.712084      21.658606      21.661274      21.654617      21.706532      21.700178      21.649551      21.596212      21.599421      21.539404      21.538898      21.476015      21.405718      21.396637      21.472584      21.466427      21.383694      21.366228      21.457066      21.534149      21.537941      21.601185      21.601206      21.599142      21.594585      21.517813      21.527601      21.443956      21.343500      21.314678      21.426489      21.403963      21.278841      21.234970      21.375595      21.486166      21.504217      21.587061      21.576004      21.652044      21.658169      21.721565      21.719120      21.780378      21.837738      21.834944      21.779930      21.777639      21.830730      21.825384      21.773863      21.719934      21.662333      21.661434      21.721697      21.653084      21.606121      21.614271      21.661488      21.708199      21.754736      21.746231      21.699690      21.691202      21.737803      21.729479      21.682772      21.636164      21.644627      21.597818      21.589428      21.542307      21.550484      21.502277      21.494509      21.445707      21.395569      21.401690      21.452812      21.459347      21.406946      21.411127      21.465157      21.516630      21.509689      21.558458      21.566149      21.573454      21.580261      21.528563      21.522974      21.470064      21.413986      21.415234      21.473864      21.476313      21.414539      21.411516      21.477135      21.536747      21.533222      21.586432      21.591812      21.643614      21.693195      21.685724      21.636980      21.629799      21.622194      21.669779      21.677885      21.725079      21.716681      21.763281      21.771822      21.780308      21.733330      21.741350      21.788673      21.835617      21.882547      21.873913      21.827059      21.818468      21.809895      21.856798      21.865316      21.912647      21.904245      21.952488      21.960722      21.969110      21.921169      21.929785      21.977633      22.026379      22.018002      22.068068      22.076260      22.127390      22.179598      22.171808      22.119400      22.111607      22.164225      22.156851      22.104019      22.052248      22.001759      22.009790      22.060059      22.037235      21.986273      21.993916      22.044638      22.096640      22.149691      22.142746      22.089476      22.082525      22.136015      22.129503      22.075792      22.023073      22.030046      21.978834      21.971609      21.921381      21.872246      21.879976      21.928862      21.944426      21.936546      21.887894      21.895988      21.848385      21.840105      21.792957      21.801380      21.784655      21.831976      21.824017      21.776495      21.768494      21.816240      21.808655      21.760666      21.753027      21.745581      21.794092      21.801270      21.850269      21.843365      21.893570      21.900200      21.907045      21.857386      21.864714      21.914106      21.964596      21.957800      22.009779      22.016317      22.069279      22.123207      22.117126      22.062983      22.056902      22.111261      22.105608      22.051039      21.997356      21.944864      21.951223      22.003460      21.985802      21.932798      21.938723      21.991472      22.045387      22.100166      22.094931      22.039949      22.034719      22.089903      22.085075      22.029696      21.975096      21.980343      21.927090      21.921595      21.869232      21.817915      21.823952      21.874990      21.887159      21.880966      21.830206      21.836678      21.787123      21.780371      21.731302      21.738338      21.724480      21.773832      21.767511      21.717871      21.668850      21.620316      21.627495      21.675747      21.690163      21.682852      21.634872      21.642445      21.595039      21.587225      21.539774      21.547802      21.531900      21.579588      21.572140      21.524197      21.476370      21.484303      21.436665      21.428534      21.380569      21.332350      21.340734      21.388853      21.397202      21.349121      21.357458      21.405573      21.453226      21.444906      21.492380      21.500582      21.508879      21.517241      21.469955      21.461590      21.413918      21.365675      21.373699      21.422178      21.430286      21.381432      21.388765      21.438162      21.486479      21.478271      21.525629      21.534002      21.581005      21.572596      21.619389      21.627741      21.674433      21.721287      21.713243      21.666210      21.658127      21.705368      21.697670      21.650200      21.603016      21.555964      21.564238      21.611139      20.462517      20.381632      20.348818      20.435308      20.519018      20.598522      20.616339      20.541134      20.556908      20.628611      20.636349      20.567492      20.496283      20.482395      20.405987      20.423458      20.435337      20.505299      20.510363      20.442692      20.446398      20.447178      20.511555      20.512238      20.576941      20.574886      20.636866      20.640125      20.641464      20.576778      20.573849      20.640398      20.704700      20.766783      20.765009      20.704206      20.701609      20.697340      20.756283      20.761379      20.819530      20.813763      20.869902      20.876223      20.881414      20.824009      20.826843      20.885151      20.887037      20.886593      20.825754      20.827600      20.766230      20.702570      20.697187      20.762774      20.755724      20.687792      20.673471      20.744244      20.811562      20.876232      20.883230      20.820665      21.003250      20.943962      20.938955      21.000206      21.060183      21.118868      21.118063      21.061275      21.059944      21.115259      21.110872      21.056684      21.001373      21.003447      20.945719      20.944876      20.941967      20.997507      20.992233      20.937429      20.931620      20.924831      20.978674      20.985868      21.039083      21.031534      21.083494      21.091345      21.098660      21.045950      21.051908      21.105244      21.157555      21.208868      21.201267      21.150415      21.142719      21.134623      21.184988      21.193266      21.243053      21.234671      21.283756      21.292175      21.300522      21.251274      21.259232      21.308723      21.316690      21.324320      21.273872      21.266811      21.215919      21.163948      21.169369      21.222240      21.227613      21.173538      21.176117      21.231771      21.285738      21.338028      21.331482      21.280249      21.190517      21.102262      21.067656      21.166355      21.256849      21.338451      21.346783      21.272198      21.282883      21.351793      21.354034      21.289690      21.220774      21.147566      21.128397      21.208288      21.233471      21.169811      21.161022      21.228909      21.293289      21.353977      21.352028      21.294250      21.293053      21.348532      21.343782      21.290102      21.234400      21.176702      21.174799      21.235119      20.915821      20.929899      20.993605      20.982580      21.048147      21.056055      21.117168      21.112345      21.090174      21.103651      21.035549      21.017157      20.942791      20.966074      20.895531      20.867573      20.781136      20.830166      20.911144      20.869198      20.957277      20.991615      21.070812      21.044224      20.962543      21.008789      20.912138      20.853748      20.744406      20.814585      20.717815      20.636953      20.421757      20.308418      20.189589      20.313910      20.425913      20.531750      20.621920      20.524633      20.603056      20.693016      20.748522      20.664795      20.576506      20.480663      20.404133      20.508038      20.671970      20.588791      20.541300      20.630283      20.712845      20.791300      20.823700      20.749676      20.777332      20.847649      20.864725      20.797499      20.727316      20.653126      20.625429      20.703718      20.249796      20.305641      20.399149      20.352097      20.449944      20.489174      20.573940      20.541134      20.443529      20.498358      20.399349      20.335045      20.215542      20.291821      20.178493      20.088369      19.834650      19.975376      20.119953      20.001143      20.153673      20.254244      20.374163      20.287312      20.046486      20.179470      20.029495      19.877254      19.674685      19.854507      19.660376      19.445612      16.879370      15.896722      14.900990      16.170279      16.927113      17.217100      17.848801      17.523293      18.044420      18.367445      18.795631      18.493156      18.033346      17.499519      16.727238      17.418802      17.993044      18.487413      18.870008      18.468275      18.860161      19.182121      19.455486      19.189875      19.467411      19.691830      19.883444      19.684511      19.442751      19.197536      18.875204      19.149839      19.374517      19.562723      19.811405      19.642702      19.862869      20.042940      20.179993      20.014629      20.149254      20.302532      20.418268      20.276321      20.099648      19.959799      19.726690      19.880646      19.610098      19.276829      19.092607      19.441080      19.259628      19.048971      18.655167      18.891649      18.446653      18.180658      17.611853      17.910685      18.157698      18.365057      18.867296      18.669313      19.397949      19.104475      18.634142      18.985147      19.380686      19.789993      20.062536      19.725327      20.005993      20.285480      20.467024      20.233749      20.005148      19.733410      19.485886      19.794592      20.043888      20.224543      20.401037      20.244652      20.405783      20.534565      20.655127      20.542425      20.684696      20.779140      20.903116      20.827648      20.732698      20.566038      20.417858      20.614136      20.802734      20.975649      21.041122      20.893127      20.965452      21.022770      21.134483      21.093349      21.208300      21.235909      21.326160      21.309174      21.286648      21.172770      21.127872      21.257622      21.221008      21.175591      21.003094      21.071943      20.894409      20.690649      20.552582      20.794474      20.672443      20.383488      20.177450      20.524405      20.817839      21.052835      21.120022      20.919184      18.305088      16.940239      16.044176      17.737808      19.072796      19.916819      20.127251      19.397520      19.692301      20.317410      20.486834      19.954384      19.215349      18.306564      17.684500      18.795219      19.876345      19.262653      18.827276      19.573212      20.183834      20.635906      20.765596      20.382296      20.552231      20.877262      20.972460      20.696449      20.345877      19.927557      19.625751      20.131769      17.343298      18.055105      18.478899      17.860462      18.444349      18.958899      19.458307      19.056509      17.992210      18.572271      17.818546      17.059488      16.200447      17.108625      16.469530      15.398608      12.490089      14.088526      15.113104      13.827800      15.028257      16.140551      17.302715      16.491833      14.494473      15.553229      13.677570      12.021760      10.659737      12.337279      10.547806      8.204060      9.284646      -0.090000      6.539641      10.486949      6.819712      9.655088      11.386481      12.587671      11.835330      13.560671      13.811051      13.156214      13.231210      12.464292      11.494802      15.582198      15.229384      14.229121      14.485155      14.944258      14.949314      16.077320      15.946580      16.810438      16.997747      17.750080      17.543066      17.267742      16.935280      16.140856      16.499203      12.265929      13.706386      15.377335      14.519745      15.535128      16.259359      16.439310      15.463738      12.510715      14.204353      14.790879      14.101985      12.832085      13.641811      10.506665      8.303107      1.469057      5.422287      12.257487      13.614738      10.110306      6.497748      -1.762589      1.780690      -7.624049      -9.394150      -5.170319      -2.806862      -6.645095      20.938597      20.991413      20.983957      20.930933      20.877396      20.823299      20.831316      20.885248      20.893349      20.839575      20.848047      20.901672      20.954664      20.946514      20.999126      21.007078      21.058975      21.051241      21.102922      21.110420      21.161482      21.212236      21.205256      21.154238      21.147242      21.198526      21.192057      21.140509      21.088686      21.095673      21.043751      21.036524      21.029570      21.022903      21.075542      21.081972      21.134047      21.185852      21.179922      21.127863      21.121965      21.174273      21.168907      21.116362      21.063570      21.069407      21.016537      21.010475      20.957027      20.903179      20.909655      20.963303      20.976780      20.969889      20.916447      20.923544      20.869816      20.862528      20.808090      20.815550      20.800938      20.855545      20.848885      20.794107      20.738813      20.682981      20.690090      20.745794      20.760708      20.753099      20.697525      20.705261      20.649183      20.641348      20.584557      20.592468      20.576935      20.633808      20.626589      20.569628      20.512098      20.519470      20.461420      20.454006      20.395367      20.336205      20.343653      20.402807      20.410536      20.351377      20.359348      20.418522      20.477121      20.535110      20.527149      20.469135      20.493753      20.551743      20.543320      20.485340      20.426727      20.367517      20.375835      20.435104      20.443598      20.384245      20.392673      20.452145      20.510954      20.502310      20.560333      20.569040      20.626369      20.682924      20.674202      20.617636      20.609043      20.600641      20.657293      20.665644      20.721544      20.713276      20.768604      20.776760      20.785151      20.730036      20.738708      20.793739      20.802488      20.747522      20.756422      20.811350      20.829170      20.820267      20.765345      20.774216      20.718319      20.709539      20.652817      20.661448      20.644033      20.700659      20.691763      20.635191      20.577801      20.586542      20.528206      20.519613      20.460669      20.401035      20.409225      20.469074      20.477251      20.417122      20.424572      20.485064      20.544773      20.603590      20.595175      20.536633      20.559582      20.619234      20.611662      20.552481      20.492348      20.431395      20.437366      20.498905      20.504498      20.442219      20.445623      20.508831      20.571068      20.565863      20.626118      20.632086      20.691753      20.750042      20.742926      20.685148      20.677767      20.669811      20.726898      20.735149      20.791407      20.782940      20.837978      20.846592      20.854887      20.799480      20.806999      20.862717      20.917303      20.909231      20.962605      20.970861      21.023487      21.075260      21.066771      21.015093      21.006474      21.058134      21.049433      20.997734      20.945307      20.892078      20.900780      20.954048      20.883238      20.936478      20.927641      20.874346      20.865479      20.856695      20.910189      20.918859      20.971546      20.963018      21.015245      21.023603      21.032114      20.980207      20.988956      21.040739      21.091902      21.142515      21.134222      21.083427      21.075094      21.066933      21.118149      21.126091      21.176668      21.168964      21.219456      21.226904      21.234566      21.184574      21.192661      21.242422      21.209267      21.258636      21.250454      21.200903      21.150938      21.100475      21.109100      21.159451      21.168003      21.117716      21.126253      21.176540      21.226200      21.217714      21.266939      21.275328      21.324018      21.315777      21.364328      21.372385      21.420540      21.468599      21.461006      21.412703      21.405039      21.453606      21.446405      21.397566      21.348690      21.299686      21.307655      21.356422      21.291887      21.341148      21.333809      21.284281      21.276882      21.269703      21.319786      21.326685      21.376394      21.369783      21.419779      21.426098      21.432646      21.383234      21.390293      21.439417      21.488613      21.537975      21.531794      21.482136      21.475882      21.469856      21.520100      21.525833      21.576046      21.570601      21.621458      21.626619      21.632000      21.581715      21.587603      21.637598      21.600039      21.649446      21.643414      21.593712      21.544380      21.495312      21.502226      21.551003      21.557838      21.509350      21.516676      21.564886      21.613344      21.606585      21.655699      21.662167      21.711477      21.761406      21.755518      21.705299      21.699341      21.693598      21.744389      21.749846      21.801096      21.795916      21.848310      21.853228      21.858353      21.806490      21.812096      21.863686      21.916311      21.911234      21.965218      21.970055      22.024876      22.080448      22.076015      22.020254      22.015829      22.071774      22.067720      22.011597      21.956142      21.960581      21.906364      21.901695      21.897226      21.892952      21.947842      21.951897      22.007553      22.063852      22.060163      22.003695      22.000017      22.056652      22.053314      21.996519      21.940289      21.943974      21.888868      21.884975      21.830648      21.834768      21.781610      21.777246      21.724663      21.672773      21.677660      21.729282      21.734108      21.682758      21.688070      21.739143      21.790941      21.843597      21.839085      21.786175      21.765333      21.819424      21.816050      21.761745      21.708204      21.655312      21.659369      21.712021      21.716034      21.663630      21.668097      21.720247      21.773081      21.769112      21.822979      21.826719      21.881268      21.877741      21.933451      21.936781      21.993193      22.050144      22.047138      21.990036      21.987047      22.044294      22.041607      21.984221      21.927303      21.930292      21.874392      21.871220      21.868219      21.865387      21.921816      21.924479      21.981552      22.039074      22.036690      21.979040      21.976681      22.034454      22.032362      21.974470      21.916964      21.919312      21.862722      21.860222      21.804327      21.749241      21.752094      21.806997      21.812857      21.809841      21.755129      21.758345      21.704582      21.701155      21.647808      21.651459      21.644356      21.697918      21.694868      21.641102      21.587833      21.591301      21.538649      21.534958      21.482386      21.430027      21.434181      21.486303      21.490450      21.438572      21.443199      21.494823      21.546680      21.598860      21.594976      21.542555      21.565376      21.616510      21.611778      21.560371      21.555588      21.607260      21.602955      21.551025      21.448063      21.499424      21.504253      21.453161      21.458492      21.509308      21.514591      21.464058      21.363407      21.413692      21.407841      21.357267      21.351372      21.402227      21.396854      21.345724      21.243395      21.294594      21.300520      21.249596      21.256052      21.306698      21.313122      21.262756      21.283516      21.231785      21.237457      21.288925      21.340324      21.391724      21.386839      21.335176      21.330286      21.382198      21.377806      21.325651      21.273491      21.278370      21.226387      21.221264      21.216421      21.211861      21.264545      21.268881      21.321276      21.373663      21.369768      21.317160      21.313309      21.366127      21.362738      21.309723      21.256699      21.203606      21.207588      21.260483      21.199915      21.253195      21.249973      21.196522      21.193426      21.190632      21.244387      21.247036      21.300575      21.298069      21.351732      21.354099      21.356722      21.303354      21.306404      21.359602      21.412848      21.466211      21.463661      21.410135      21.407665      21.405439      21.459251      21.461342      21.515200      21.513243      21.567488      21.569317      21.571350      21.517372      21.519762      21.573586      21.525192      21.578669      21.576025      21.522369      21.468988      21.415804      21.418999      21.471996      21.475231      21.422436      21.426111      21.478695      21.531487      21.528231      21.581518      21.584574      21.638046      21.692007      21.689333      21.635185      21.632519      21.630047      21.684532      21.686842      21.741739      21.739588      21.795313      21.797321      21.799490      21.744066      21.746565      21.801825      21.857880      21.855698      21.912727      21.914770      21.972406      22.030409      22.028595      21.970486      21.968706      22.026915      22.025366      21.967064      21.909081      21.910831      21.853672      21.851799      21.850079      21.848509      21.906008      21.907475      21.965557      22.023945      22.022654      21.964186      21.962944      22.021484      22.020439      21.961834      21.903494      21.904682      21.847086      21.845810      21.788879      21.790251      21.734150      21.732672      21.677105      21.622078      21.623783      21.678694      21.680460      21.625679      21.627768      21.682405      21.737606      21.793467      21.791780      21.735792      21.729239      21.785690      21.784935      21.728422      21.672529      21.617155      21.618101      21.673407      21.674463      21.619238      21.620562      21.675695      21.731363      21.730217      21.786600      21.787663      21.844679      21.843693      21.901524      21.902441      21.960850      22.019516      22.018709      21.959993      21.959261      22.018023      22.017452      21.958652      21.900087      21.900740      21.842848      21.842146      21.841587      21.841167      21.899176      21.899567      21.958166      22.016996      22.016655      21.957804      21.957561      22.016428      22.016315      21.957439      21.898787      21.898916      21.840887      21.840748      21.783424      21.726793      21.726955      21.783575      21.784330      21.783876      21.727282      21.727770      21.671825      21.671299      21.615831      21.616400      21.615454      21.670948      21.670773      21.615265      21.560171      21.560375      