<VTKFile type="UnstructuredGrid" version="1.0" byte_order="LittleEndian" header_type="UInt64">
  <UnstructuredGrid>
    <Piece NumberOfPoints="40574" NumberOfCells="18683">
      <CellData Scalars="Scalars_">
        <DataArray type="Float32" Name="Scalars_" format="ascii">
     21.462420      21.462526      21.434225      21.434118      21.387081      21.331430      21.331547      21.387192      21.387415      21.331779      21.332130      21.387751      21.434769      21.434443      21.462740      21.463060      21.463490      21.464029      21.435751      21.435204      21.388201      21.332600      21.333185      21.388762      21.389439      21.333893      21.334721      21.390232      21.437180      21.436409      21.464676      21.465437      21.466309      21.467297      21.439066      21.438065      21.391144      21.335670      21.336744      21.392174      21.393324      21.337942      21.339270      21.394598      21.441423      21.440186      21.468399      21.469622      21.470964      21.472431      21.444273      21.442785      21.395998      21.340725      21.342314      21.397526      21.399181      21.344036      21.345896      21.400972      21.447630      21.445887      21.474024      21.475746      21.477598      21.479588      21.451519      21.449507      21.402897      21.347895      21.350037      21.404963      21.407167      21.352324      21.354759      21.409519      21.455967      21.453672      21.481712      21.483980      21.486391      21.488951      21.460997      21.458406      21.412018      21.357347      21.360090      21.414669      21.417475      21.362991      21.366056      21.420439      21.466639      21.463739      21.491663      21.494530      21.497557      21.500746      21.472921      21.469698      21.423567      21.369286      21.372684      21.426861      21.430325      21.376257      21.380007      21.433960      21.479876      21.476313      21.504101      21.507626      21.511326      21.515202      21.487528      21.483612      21.437775      21.383936      21.388050      21.441769      21.445948      21.392351      21.396843      21.450315      21.495909      21.491625      21.519260      21.523502      21.486404      21.433891      21.440016      21.492380      21.537224      21.564442      21.558619      21.531349      21.525682      21.553001      21.547588      21.520220      21.475079      21.480639      21.427980      21.422277      21.416784      21.469727      21.464577      21.411497      21.406412      21.401529      21.454874      21.459625      21.505045      21.500381      21.527931      21.532553      21.537367      21.509905      21.514963      21.542377      21.452902      21.446352      21.498566      21.504963      21.549599      21.543306      21.570471      21.576710      21.589817      21.583158      21.556101      21.562815      21.518394      21.511574      21.459665      21.466642      21.481230      21.473831      21.525429      21.532671      21.576872      21.569738      21.596684      21.603760      21.618532      21.611044      21.584211      21.591759      21.547781      21.540123      21.488836      21.496645      21.606728      21.556461      21.565620      21.615820      21.659046      21.685400      21.676416      21.650021      21.641155      21.667599      21.658953      21.632460      21.588997      21.597782      21.547430      21.538540      21.529808      21.580383      21.571947      21.521242      21.512856      21.504654      21.555639      21.563698      21.607460      21.599510      21.626225      21.634117      21.642206      21.615604      21.623940      21.650486      21.584251      21.574890      21.625051      21.634403      21.677538      21.668222      21.694538      21.703821      21.722782      21.713240      21.686977      21.696531      21.653408      21.643862      21.593681      21.603157      21.622129      21.612650      21.663025      21.672689      21.715916      21.706182      21.732433      21.742180      21.761904      21.752010      21.725712      21.735558      21.692074      21.682381      21.631567      21.640923      20.938194      20.855612      20.829798      20.919153      21.000479      21.075762      21.083637      21.013584      21.022436      21.088161      21.089928      21.027781      20.961567      20.952034      20.875252      20.889744      20.809752      20.789125      20.688995      20.717669      20.607975      20.473431      20.417875      20.568205      20.519690      20.351387      20.272449      20.461039      20.608788      20.653116      20.762426      20.728518      20.686052      20.633427      20.488688      20.554546      20.390635      20.179335      20.070021      20.306574      20.206612      19.942047      19.792229      20.088095      20.313843      20.409220      20.568731      20.489689      20.636131      20.765738      20.818861      20.701712      20.754480      20.796581      20.893831      20.860924      20.957739      20.982224      21.063824      21.046976      21.024208      20.925722      20.884615      20.994318      21.094501      21.185093      21.196995      21.114567      21.129253      21.139458      21.209644      21.204962      21.274727      21.275009      21.336355      21.339443      21.340954      21.272123      21.266739      21.340574      21.408010      21.404701      21.464663      21.470564      21.529661      21.586359      21.577641      21.522030      21.513968      21.568705      21.559608      21.505562      21.450731      21.394611      21.400166      21.458008      21.434778      21.381138      21.388216      21.442955      21.496889      21.550400      21.541122      21.488014      21.479000      21.531818      21.522522      21.469898      21.417583      21.426294      21.373516      21.365465      21.313110      21.259958      21.265572      21.320152      21.331961      21.326494      21.270121      21.273361      21.211597      21.211288      21.149328      21.145935      21.150175      21.209116      21.205421      21.148930      21.145975      21.200485      21.194553      21.141634      21.136173      21.129822      21.180479      21.187828      21.238668      21.230589      21.280571      21.289145      21.297491      21.246344      21.253490      21.305515      21.357090      21.348476      21.399750      21.408716      21.460758      21.513266      21.504078      21.451616      21.442513      21.494980      21.485996      21.433475      21.381725      21.330832      21.339703      21.390738      21.363846      21.313007      21.321917      21.372749      21.424534      21.477146      21.468443      21.415709      21.407021      21.459902      21.451536      21.398487      21.346361      21.355042      21.304142      21.295355      21.245367      21.196152      21.204927      21.254192      21.271845      21.263035      21.213636      21.222216      21.172651      21.164467      21.115168      21.122766      21.107157      21.156027      21.147417      21.098846      21.050114      21.000862      21.008060      21.057966      21.072153      21.065359      21.014614      21.020348      20.966755      20.962399      20.907995      20.910549      20.904053      20.956964      20.950663      20.898972      20.845078      20.848486      20.789171      20.788073      20.726854      20.660208      20.653734      20.724762      20.720123      20.643847      20.629953      20.712482      20.785223      20.788345      20.850416      20.850569      20.848585      20.844048      20.770332      20.779385      20.701315      20.611378      20.587355      20.686020      20.665911      20.557022      20.519409      20.640196      20.740198      20.757492      20.836468      20.825262      20.899946      20.906574      20.970566      20.967537      21.030239      21.089430      21.087084      21.030329      21.028481      21.083239      21.078180      21.025053      20.969778      20.911413      20.910229      20.971169      20.902882      20.854595      20.862980      20.911489      20.959570      21.007502      20.998798      20.950867      20.942158      20.990150      20.981588      20.933487      20.885483      20.894196      20.846037      20.837374      20.788931      20.797428      20.748089      20.739910      20.690046      20.639074      20.645985      20.697710      20.704849      20.652136      20.657341      20.711321      20.763296      20.755920      20.805716      20.813709      20.821306      20.828390      20.776152      20.770090      20.716959      20.661383      20.664007      20.721573      20.724939      20.664923      20.663788      20.726799      20.785360      20.781309      20.834826      20.840450      20.892969      20.943674      20.936146      20.886227      20.878897      20.871111      20.919956      20.928204      20.976749      20.968218      21.016216      21.024899      21.033491      20.985094      20.993166      21.041924      21.090326      21.138706      21.129957      21.081678      21.072962      21.064234      21.112528      21.121218      21.169928      21.161343      21.210922      21.219349      21.227915      21.178612      21.187366      21.236597      21.286674      21.278126      21.329443      21.337822      21.390121      21.443352      21.435362      21.381935      21.373938      21.427568      21.419981      21.366137      21.313215      21.261488      21.269724      21.321236      21.297760      21.245564      21.253431      21.305387      21.358538      21.412600      21.405430      21.351149      21.343969      21.398474      21.391731      21.337004      21.283131      21.290340      21.237894      21.230429      21.178911      21.128452      21.136423      21.186634      21.202650      21.194550      21.144571      21.152884      21.103924      21.095432      21.046913      21.055540      21.038387      21.087076      21.078876      21.029987      21.021732      21.070847      21.063000      21.013639      21.005724      20.997995      21.047890      21.055344      21.105701      21.098528      21.150078      21.156969      21.164074      21.113085      21.120670      21.171389      21.223171      21.216127      21.269352      21.276134      21.330254      21.385204      21.378891      21.323719      21.317400      21.372793      21.366907      21.311296      21.256439      21.202684      21.209297      21.262789      21.244389      21.190107      21.196287      21.250307      21.305407      21.361233      21.355768      21.299730      21.294262      21.350510      21.345455      21.289003      21.233191      21.238684      21.184141      21.178391      21.124676      21.071976      21.078289      21.130701      21.143402      21.136944      21.084820      21.091568      21.040640      21.033602      20.983133      20.990463      20.976011      21.026775      21.020166      20.969103      20.918642      20.868649      20.876148      20.925850      20.940878      20.933264      20.883846      20.891731      20.842880      20.834742      20.785812      20.794180      20.777594      20.826773      20.818989      20.769539      20.720181      20.728481      20.679310      20.670790      20.621246      20.571426      20.580269      20.629950      20.638721      20.589130      20.597960      20.647526      20.696650      20.687941      20.736923      20.745485      20.754137      20.762850      20.714163      20.705404      20.656313      20.606695      20.615267      20.665030      20.673609      20.623589      20.631563      20.681978      20.731478      20.722872      20.771584      20.780294      20.828661      20.819946      20.868155      20.876791      20.924889      20.973141      20.964828      20.916391      20.908020      20.956671      20.948683      20.899794      20.851175      20.802675      20.811274      20.859608      19.696726      19.617176      19.593901      19.677732      19.759001      19.836761      19.848608      19.774130      19.784292      19.856068      19.859921      19.790363      19.718672      19.710037      19.633945      19.645376      19.652433      19.723471      19.725136      19.655926      19.656525      19.654785      19.721331      19.724260      19.790808      19.786772      19.850863      19.855871      19.859318      19.793055      19.793077      19.860823      19.926529      19.990225      19.986423      19.923775      19.919310      19.913481      19.974604      19.981112      20.041344      20.034279      20.092590      20.100115      20.106730      20.047361      20.052048      20.112175      20.116138      20.118244      20.055979      20.055058      19.992142      19.927160      19.925173      19.991722      19.988422      19.919973      19.910856      19.981596      20.049475      20.114986      20.118042      20.054317      20.240215      20.179930      20.178545      20.240425      20.300777      20.359642      20.356464      20.299040      20.295425      20.351730      20.345755      20.290306      20.233614      20.237801      20.178783      20.175600      20.170782      20.228018      20.221312      20.164671      20.157545      20.149639      20.205519      20.213743      20.268808      20.260321      20.314135      20.322826      20.331102      20.276760      20.283998      20.338806      20.392513      20.445192      20.436781      20.384417      20.375881      20.367039      20.419123      20.428057      20.479441      20.470478      20.521210      20.530140      20.539028      20.488283      20.496922      20.547804      20.556393      20.564699      20.513170      20.505257      20.453165      20.400023      20.406759      20.460554      20.467180      20.412506      20.417000      20.472832      20.527147      20.580015      20.572617      20.520523      20.456846      20.377693      20.353973      20.440380      20.520992      20.595404      20.600525      20.531218      20.537708      20.602861      20.602875      20.541080      20.475855      20.407312      20.395115      20.468395      20.481194      20.419516      20.415194      20.479923      20.541862      20.600956      20.597443      20.540506      20.537394      20.592623      20.586742      20.532848      20.477261      20.419930      20.420916      20.480165      20.165693      20.174036      20.237906      20.232025      20.296713      20.300184      20.360880      20.359720      20.347902      20.355614      20.289709      20.278385      20.206984      20.222025      20.152655      20.133884      20.073904      20.108135      20.185799      20.157143      20.238785      20.261789      20.335796      20.318348      20.262690      20.294432      20.208002      20.167795      20.070673      20.119410      20.029375      19.972372      19.745960      19.641159      19.551697      19.665329      19.771484      19.873049      19.937927      19.844078      19.901665      19.989014      20.028696      19.946806      19.861265      19.770462      19.713114      19.810360      19.931376      19.850685      19.815638      19.900965      19.981640      20.058958      20.081455      20.007956      20.027241      20.097563      20.108423      20.040735      19.970463      19.896973      19.877317      19.954096      19.521973      19.562725      19.651855      19.617672      19.709476      19.737860      19.819599      19.796019      19.724112      19.764708      19.672386      19.624861      19.517286      19.573483      19.469641      19.403332      19.216814      19.320190      19.446716      19.358997      19.490055      19.564877      19.672388      19.607357      19.426605      19.526443      19.397633      19.284414      19.118641      19.250889      19.089167      18.932470      17.097946      16.401333      15.700095      16.590923      17.114538      17.314375      17.784964      17.551096      17.933018      18.171402      18.490681      18.262390      17.926346      17.542479      16.987747      17.477856      17.886633      18.254047      18.531256      18.226597      18.508385      18.741087      18.957949      18.763952      18.980476      19.146742      19.304243      19.155096      18.974089      18.781019      18.543385      18.755108      18.938921      19.105112      19.290148      19.140245      19.305752      19.441267      19.565201      19.441683      19.568447      19.680822      19.791512      19.689884      19.564058      19.430029      19.260448      19.409122      19.219217      18.987358      18.802755      19.053692      18.880096      18.694883      18.400051      18.607481      18.278336      18.045130      17.619873      17.882200      18.135143      18.362934      18.705231      18.499596      19.154757      18.920938      18.608322      18.881643      19.166567      19.451813      19.638657      19.397079      19.586319      19.792276      19.917944      19.741047      19.562355      19.378973      19.177420      19.387280      19.558435      19.711727      19.832821      19.697481      19.809902      19.900267      20.008614      19.930447      20.050831      20.116192      20.221510      20.168962      20.102757      19.968884      19.866966      20.020163      20.166739      20.303072      20.350832      20.231022      20.282293      20.322678      20.418020      20.388620      20.486320      20.506308      20.586969      20.574612      20.557623      20.460052      20.426373      20.535198      20.506420      20.470251      20.331375      20.383976      20.243496      20.086939      19.988663      20.169945      20.079916      19.868429      19.722145      19.970503      20.188560      20.370962      20.425528      20.266870      18.311312      17.420694      16.772558      17.880409      18.799381      19.401392      19.587446      19.063875      19.301287      19.752846      19.898224      19.510506      18.996605      18.396896      17.953995      18.681229      19.489849      19.074398      18.766201      19.264065      19.692352      20.024677      20.133600      19.848688      19.981848      20.226549      20.305140      20.094322      19.838352      19.544996      19.331318      19.679605      17.766615      18.228132      18.550180      18.149450      18.548338      18.886797      19.225615      18.953026      18.236227      18.626116      18.140038      17.648586      17.089771      17.667116      17.207207      16.529957      14.721281      15.710872      16.403860      15.597688      16.347012      17.057774      17.774458      17.232832      15.900742      16.606825      15.488307      14.439882      13.615211      14.665486      13.527600      12.092478      11.283692      3.792127      9.071871      12.727317      11.094687      12.809299      13.368773      14.217557      14.150223      15.230266      15.077240      14.317352      14.331669      13.750349      13.030089      16.153746      15.836102      15.084313      15.329239      15.871955      16.114399      16.844019      16.575165      17.182566      17.448135      17.948643      17.699514      17.406740      17.113966      16.519411      16.837008      13.845770      14.859767      16.024868      15.413012      16.094666      16.625559      16.734663      16.006628      13.795237      15.064931      15.547869      15.039876      14.206397      14.786148      12.603734      11.039897      6.147776      8.980935      13.791878      14.678450      11.990241      9.264761      2.970095      5.705101      -0.929605      -2.233630      1.037120      3.083695      0.448112      20.160913      20.215933      20.208038      20.152798      20.096968      20.040497      20.048986      20.105282      20.113859      20.057734      20.066710      20.122675      20.177923      20.169296      20.224098      20.232515      20.286514      20.278330      20.332058      20.339989      20.393017      20.445673      20.438288      20.385351      20.377947      20.431164      20.424307      20.370813      20.316984      20.324385      20.270403      20.262747      20.255379      20.248310      20.303047      20.309868      20.363962      20.417728      20.411434      20.357401      20.351139      20.405434      20.399729      20.345184      20.290335      20.296534      20.241554      20.235119      20.179483      20.123375      20.130245      20.186142      20.200434      20.193130      20.137447      20.144970      20.088938      20.081215      20.024385      20.032290      20.016804      20.073812      20.066748      20.009562      19.951780      19.893379      19.900917      19.959181      19.974983      19.966921      19.908794      19.916990      19.858286      19.849981      19.790476      19.798861      19.782398      19.841993      19.834341      19.774654      19.714317      19.722130      19.661201      19.653339      19.591738      19.529541      19.537441      19.599628      19.607830      19.545645      19.554111      19.616308      19.677855      19.738712      19.730272      19.669382      19.695526      19.756367      19.747423      19.686583      19.625029      19.562805      19.571676      19.633947      19.643013      19.580669      19.589720      19.652166      19.713871      19.704639      19.765501      19.774778      19.834852      19.894073      19.884809      19.825563      19.816439      19.807526      19.866879      19.875731      19.934242      19.925482      19.983347      19.991985      20.000875      19.943241      19.952444      20.009979      20.019266      19.961809      19.971285      20.028687      20.047720      20.038193      19.980818      19.990335      19.931940      19.922482      19.863161      19.872505      19.853718      19.912970      19.903479      19.844257      19.784143      19.793528      19.732422      19.723156      19.661337      19.598753      19.607677      19.670446      19.679394      19.616385      19.624748      19.688063      19.750523      19.812025      19.802853      19.741577      19.767256      19.829445      19.820932      19.759130      19.696316      19.632610      19.639791      19.703989      19.710882      19.646067      19.651171      19.716757      19.781307      19.774717      19.837402      19.844616      19.906576      19.967163      19.959007      19.898842      19.890476      19.881651      19.941257      19.950321      20.008995      19.999762      20.057198      20.066538      20.075638      20.017921      20.026405      20.084372      20.141146      20.132225      20.187757      20.196810      20.251450      20.305151      20.295982      20.242317      20.233027      20.286718      20.277431      20.223665      20.169085      20.113619      20.123013      20.178484      20.104137      20.159643      20.150229      20.094645      20.085209      20.075882      20.131699      20.140898      20.195810      20.186773      20.241161      20.250010      20.259029      20.205000      20.214302      20.268185      20.321367      20.373932      20.365158      20.312389      20.303568      20.294933      20.348164      20.356560      20.409067      20.400927      20.453304      20.461172      20.469261      20.417419      20.425962      20.477552      20.443518      20.494661      20.486027      20.434671      20.382849      20.330465      20.339640      20.391874      20.400965      20.348835      20.357994      20.410069      20.461466      20.452463      20.503428      20.512289      20.562645      20.553963      20.604177      20.612646      20.662405      20.712042      20.704079      20.654179      20.646128      20.696308      20.688740      20.638269      20.587727      20.537012      20.545410      20.595863      20.528793      20.579782      20.572046      20.520773      20.512964      20.505383      20.557243      20.564529      20.615959      20.608976      20.660666      20.667339      20.674248      20.623173      20.630613      20.681383      20.732191      20.783131      20.776615      20.725363      20.718763      20.712397      20.764263      20.770325      20.822117      20.816360      20.868788      20.874247      20.879927      20.828100      20.834309      20.885830      20.847393      20.898300      20.891954      20.840740      20.789873      20.739241      20.746508      20.796835      20.804010      20.753986      20.761667      20.811398      20.861351      20.854265      20.904863      20.911646      20.962408      21.013773      21.007597      20.955931      20.949673      20.943632      20.995895      21.001638      21.054331      21.048878      21.102705      21.107882      21.113268      21.059998      21.065878      21.118864      21.172853      21.167524      21.222828      21.227905      21.283949      21.340601      21.335945      21.279097      21.274443      21.331486      21.327217      21.269985      21.213278      21.217953      21.162403      21.157488      21.152777      21.148262      21.204519      21.208801      21.265720      21.323135      21.319239      21.261644      21.257755      21.315523      21.311985      21.254047      21.196524      21.200428      21.143946      21.139824      21.084049      21.088411      21.033781      21.029163      20.975071      20.921652      20.926821      20.979958      20.985058      20.932207      20.937809      20.990370      21.043636      21.097736      21.092972      21.038605      21.016521      21.072134      21.068544      21.012705      20.957602      20.903124      20.907436      20.961660      20.965923      20.911961      20.916698      20.970394      21.024750      21.020536      21.075912      21.079884      21.135891      21.132147      21.189266      21.192804      21.250519      21.308620      21.305426      21.247164      21.243982      21.302399      21.299534      21.240971      21.182722      21.185905      21.128586      21.125208      21.122009      21.118986      21.176865      21.179708      21.238123      21.296829      21.294281      21.235437      21.232912      21.291885      21.289642      21.230545      21.171673      21.174187      21.116138      21.113461      21.056030      20.999363      21.002413      21.058886      21.065142      21.061922      21.005651      21.009083      20.953745      20.950090      20.895132      20.899023      20.891451      20.946636      20.943378      20.887976      20.833048      20.836750      20.782427      20.778492      20.724209      20.670115      20.674540      20.728388      20.732803      20.679214      20.684137      20.737459      20.790983      20.844805      20.840668      20.786591      20.810831      20.863550      20.858534      20.805527      20.800451      20.853737      20.849161      20.795603      20.689304      20.742350      20.747477      20.694715      20.700371      20.752838      20.758434      20.706264      20.602234      20.654226      20.648031      20.595736      20.589489      20.642082      20.636381      20.583498      20.477537      20.530575      20.536858      20.484108      20.490944      20.543400      20.550198      20.498039      20.518812      20.465216      20.471237      20.524559      20.577765      20.630934      20.625738      20.572296      20.567093      20.620800      20.616123      20.562159      20.508150      20.513342      20.459478      20.454029      20.448874      20.444017      20.498621      20.503242      20.557497      20.611706      20.607552      20.553110      20.549000      20.603662      20.600040      20.545172      20.490250      20.435215      20.439463      20.494289      20.431276      20.486507      20.483067      20.427650      20.424343      20.421356      20.477091      20.479925      20.535391      20.532707      20.588266      20.590799      20.593607      20.538364      20.541624      20.596687      20.651764      20.706923      20.704191      20.648859      20.646214      20.643827      20.699463      20.701704      20.757345      20.755245      20.811256      20.813221      20.815403      20.759678      20.762239      20.817801      20.768053      20.823250      20.820417      20.765032      20.709896      20.654924      20.658342      20.713112      20.716572      20.662014      20.665937      20.720270      20.774784      20.771303      20.826298      20.829565      20.884710      20.940319      20.937454      20.881649      20.878794      20.876143      20.932308      20.934786      20.991327      20.989016      21.046362      21.048519      21.050848      20.993820      20.996498      21.053350      21.110952      21.108612      21.167128      21.169321      21.228331      21.287546      21.285595      21.226267      21.224352      21.283787      21.282118      21.222584      21.163206      21.165089      21.106436      21.104422      21.102570      21.100878      21.159895      21.161476      21.220961      21.280586      21.279190      21.219479      21.218140      21.277927      21.276796      21.216938      21.157181      21.158464      21.099344      21.097967      21.039436      21.040915      20.983170      20.981579      20.924326      20.867584      20.869419      20.926035      20.927935      20.871456      20.873697      20.930025      20.986887      21.044378      21.042562      20.984938      20.977875      21.035994      21.035177      20.976995      20.919395      20.862288      20.863306      20.920343      20.921480      20.864529      20.865955      20.922808      20.980167      20.978933      21.036976      21.038124      21.096746      21.095680      21.155048      21.156042      21.215874      21.275795      21.274921      21.214945      21.214151      21.274176      21.273556      21.213491      21.153494      21.154200      21.094767      21.094007      21.093401      21.092947      21.152506      21.152929      21.212965      21.273062      21.272692      21.212570      21.212307      21.272446      21.272322      21.212175      21.152084      21.152224      21.092644      21.092493      21.033545      20.975235      20.975412      21.033707      21.034523      21.034035      20.975763      20.976292      20.918638      20.918070      20.860861      20.861473      20.860453      20.917690      20.917501      20.860249      20.803387      20.803606      