<VTKFile type="UnstructuredGrid" version="1.0" byte_order="LittleEndian" header_type="UInt64">
  <UnstructuredGrid>
    <Piece NumberOfPoints="40574" NumberOfCells="18683">
      <CellData Scalars="Scalars_">
        <DataArray type="Float32" Name="Scalars_" format="ascii">
     13.478670      13.478903      13.443836      13.443601      13.381960      13.303551      13.303800      13.382201      13.382683      13.304298      13.305047      13.383407      13.445013      13.444306      13.479367      13.480065      13.480997      13.482163      13.447136      13.445956      13.384372      13.306046      13.307294      13.385579      13.387030      13.308794      13.310546      13.388725      13.450211      13.448554      13.483565      13.485203      13.487078      13.489192      13.454247      13.452107      13.390665      13.312551      13.314809      13.392852      13.395286      13.317321      13.320089      13.397968      13.459252      13.456627      13.491547      13.494143      13.496984      13.500069      13.465241      13.462123      13.400901      13.323113      13.326395      13.404084      13.407521      13.329935      13.333734      13.411212      13.472227      13.468609      13.503402      13.506983      13.510816      13.514900      13.480221      13.476097      13.415158      13.337791      13.342111      13.419360      13.423820      13.346689      13.351529      13.428537      13.489234      13.484599      13.519238      13.523831      13.528681      13.533788      13.499275      13.494125      13.433513      13.356628      13.361987      13.438747      13.444239      13.367603      13.373475      13.449987      13.510346      13.504682      13.539152      13.544774      13.550653      13.556790      13.522445      13.516268      13.455992      13.379600      13.385973      13.462248      13.468755      13.392591      13.399446      13.475507      13.535554      13.528874      13.563181      13.569824      13.576715      13.583852      13.549645      13.542480      13.482498      13.406533      13.413841      13.489723      13.497174      13.421359      13.429075      13.504839      13.564672      13.557046      13.591227      13.598833      13.563210      13.486935      13.495399      13.571949      13.632236      13.666607      13.657619      13.623329      13.614507      13.648735      13.639982      13.605796      13.545895      13.554515      13.478446      13.469976      13.461564      13.537380      13.528996      13.453240      13.445036      13.436974      13.512708      13.520765      13.580565      13.572516      13.606663      13.614706      13.622950      13.588805      13.597222      13.631380      13.512058      13.503793      13.580691      13.589395      13.650177      13.641197      13.675673      13.684786      13.703005      13.693910      13.659135      13.668028      13.606485      13.598011      13.520133      13.527946      13.542467      13.535421      13.614757      13.622759      13.685415      13.676805      13.712029      13.720933      13.738167      13.729665      13.693795      13.701880      13.637643      13.630415      13.548986      13.554869      13.667473      13.566337      13.561611      13.667237      13.745986      13.789299      13.785323      13.743382      13.739730      13.780476      13.774851      13.735147      13.663863      13.666296      13.569066      13.570021      13.569407      13.660320      13.655804      13.567417      13.564225      13.559993      13.644352      13.650442      13.716873      13.709599      13.746377      13.754226      13.761641      13.723618      13.729741      13.768543      13.545218      13.554655      13.665427      13.661872      13.747573      13.747424      13.792304      13.794234      13.794466      13.794990      13.746305      13.743495      13.648815      13.656395      13.533036      13.517838      13.477266      13.499344      13.638949      13.626617      13.732744      13.739016      13.792564      13.789188      13.777657      13.784245      13.724564      13.714365      13.593844      13.611639      13.451320      13.421225      10.202298      9.628504      9.276835      9.886411      10.402515      10.860587      11.108809      10.684859      10.932086      11.324691      11.512140      11.148302      10.728255      10.481591      9.943349      10.224828      9.600075      9.274801      8.422063      8.806405      7.789842      6.495497      5.916662      7.323731      6.822001      5.299403      4.645320      6.284346      7.549124      8.003500      8.915849      8.520584      8.086257      7.610023      6.527069      7.057436      5.710742      3.956709      3.236421      5.101403      4.456707      2.487512      1.712556      3.777125      5.345882      5.956843      7.088976      6.520205      7.421420      8.160493      8.672329      7.961488      8.447606      8.884571      9.529501      9.126636      9.713446      10.080438      10.575624      10.248995      9.875202      9.295746      8.820880      9.448156      10.057046      10.645353      10.956725      10.428239      10.752352      11.034743      11.464764      11.228377      11.674240      11.865378      12.233100      12.084085      11.912937      11.454570      11.202886      11.717092      12.177375      12.324011      12.683178      12.577618      12.916553      13.196483      13.244574      12.989456      13.053267      13.286487      13.322687      13.108736      12.856205      12.564165      12.452347      12.775646      12.986042      12.744826      12.661139      12.925982      13.156595      13.353635      13.379783      13.197548      13.232263      13.401566      13.419400      13.261368      13.080929      13.037383      12.816663      12.877964      12.652363      12.404115      12.298051      12.570089      12.362352      12.474020      12.174523      12.031173      11.669933      11.847546      11.493300      11.280269      11.677751      12.000889      12.132906      11.837106      11.974462      12.246217      12.343146      12.092553      12.193796      12.280317      12.495855      12.425754      12.637527      12.692676      12.873612      12.831853      12.781859      12.572072      12.494827      12.722466      12.929933      12.973654      13.147974      13.117532      13.285449      13.433681      13.444780      13.305052      13.320677      13.453041      13.458786      13.332784      13.193156      13.040185      13.010110      13.172967      13.221400      13.084269      13.064670      13.209126      13.341791      13.462307      13.463878      13.348081      13.351995      13.463743      13.462128      13.353847      13.236702      13.230453      13.099613      13.111260      12.977378      12.834275      12.808673      12.959291      12.908175      12.936463      12.777159      12.738832      12.555050      12.604745      12.416439      12.353986      12.469117      12.646175      12.680424      12.513278      12.328872      12.121325      12.052041      12.273226      12.130834      12.207684      11.971423      11.877944      11.583919      11.697375      11.371496      11.232924      11.493681      11.796331      11.882385      11.601109      11.263883      11.128463      10.682437      10.854979      10.357821      9.757172      9.471708      10.136195      9.889517      9.154765      8.804346      9.616017      10.274365      10.489457      10.975891      10.804524      10.612605      10.398258      9.770953      10.035447      9.313977      8.418610      7.995943      8.981760      8.617856      7.535046      7.035028      8.220924      9.158186      9.479120      10.159490      9.894178      10.476096      10.700035      11.137521      10.945842      11.337147      11.674620      11.815189      11.501844      11.645247      11.936547      12.041066      11.769873      11.454170      11.076171      10.899264      11.306122      12.197882      12.009933      11.964266      12.164065      12.339808      12.497109      12.514708      12.364512      12.384601      12.528483      12.538937      12.400647      12.249395      12.226108      12.048760      12.081497      11.892713      11.847633      11.617378      11.678469      11.434245      11.156107      11.048866      11.352673      11.258847      10.925955      10.785674      11.151438      11.465300      11.546679      11.794951      11.733783      11.663163      11.582047      11.265815      11.372091      11.029018      10.626217      10.445671      10.890077      10.733018      10.242036      10.013241      10.556174      11.008699      11.145151      11.489298      11.383685      11.695261      11.956964      12.021341      11.777484      11.849003      11.910927      12.123928      12.076657      12.273893      12.309845      12.475119      12.448088      12.415281      12.231130      12.180624      12.375861      12.550026      12.708437      12.731048      12.580324      12.605018      12.624846      12.762869      12.748980      12.883017      12.891938      13.013921      13.009170      13.001792      12.870798      12.854753      12.991359      13.119706      13.125388      13.242259      13.240526      13.353912      13.459235      13.455250      13.352443      13.349660      13.450335      13.444639      13.345763      13.240604      13.129965      13.128695      13.242198      13.233727      13.127563      13.129499      13.237713      13.340930      13.438294      13.431419      13.335315      13.329058      13.424118      13.416483      13.322280      13.223175      13.228828      13.124384      13.120168      13.013561      12.903114      12.903284      13.015973      13.016425      13.017013      12.901692      12.898028      12.773271      12.780669      12.652414      12.640456      12.661217      12.785488      12.788100      12.667295      12.671033      12.788826      12.787951      12.672762      12.672775      12.671329      12.782352      12.785721      12.894571      12.889736      12.994210      13.000164      13.005476      12.898537      12.901453      13.009998      13.115091      13.109310      13.210147      13.216908      13.315089      13.408597      13.400532      13.307581      13.299838      13.392351      13.384111      13.291932      13.195561      13.096156      13.102959      13.203000      13.180122      13.081595      13.089005      13.187912      13.283927      13.375861      13.367643      13.275878      13.267833      13.359493      13.351445      13.259833      13.164361      13.172254      13.074005      13.066302      12.966300      12.864554      12.871486      12.973696      12.987742      12.980872      12.878065      12.884189      12.778035      12.772933      12.664929      12.668648      12.660348      12.767192      12.760938      12.655055      12.546284      12.433791      12.435906      12.550237      12.555086      12.553232      12.436751      12.436105      12.310166      12.314146      12.183851      12.175467      12.189720      12.316187      12.316558      12.193402      12.063031      12.055009      11.910502      11.924106      11.775341      11.615617      11.586327      11.754707      11.729283      11.550904      11.508514      11.698413      11.871655      11.893191      12.044134      12.029996      12.012142      11.990069      11.813567      11.845324      11.661370      11.458230      11.399029      11.617355      11.565488      11.329782      11.249258      11.504802      11.730937      11.775692      11.963225      11.930997      12.108825      12.131356      12.283427      12.268328      12.413157      12.546508      12.551586      12.422580      12.429317      12.554513      12.555592      12.433720      12.303950      12.164201      12.149648      12.295162      5.562490      5.134355      4.475041      4.940117      5.419595      5.900845      6.446719      6.003605      6.521684      6.930047      7.356565      6.979695      6.604631      6.115305      5.720420      6.239581      6.697962      7.036321      7.415946      7.101400      7.455396      7.765079      8.039627      7.748753      8.048119      8.319057      8.598948      8.348313      8.060724      7.737740      7.383268      7.731742      8.076934      8.416199      8.695001      8.380638      8.645583      8.876015      9.148170      8.937640      9.223337      9.414294      9.673854      9.502194      9.303294      9.002682      8.748479      9.073539      8.808923      8.505033      8.122066      8.456489      8.096795      7.729852      7.334407      7.731963      7.316489      6.885260      6.376749      6.844790      7.305301      7.759650      8.157032      7.740159      8.971271      8.567616      8.208722      8.651867      9.086468      9.508155      9.747811      9.365845      9.608849      9.955951      10.136165      9.819602      9.491495      9.249616      8.881086      9.154117      9.391253      9.701083      9.882148      9.596614      9.773925      9.926530      10.171917      10.038079      10.293859      10.409363      10.637958      10.540114      10.425475      10.158917      10.001838      10.291699      10.568478      10.829989      10.921053      10.680092      10.775486      10.856642      11.064381      10.998636      11.208488      11.260352      11.444101      11.404411      11.356967      11.146960      11.074437      11.300706      11.234451      11.156898      10.890315      10.989437      10.723611      10.438423      10.287457      10.599880      10.456534      10.112834      9.911516      10.291077      10.642241      10.961998      11.066607      10.775251      8.250775      7.433887      6.872282      7.788339      8.626882      9.370876      9.664648      8.998982      9.330227      9.926258      10.158360      9.624048      9.026994      8.376302      7.933438      8.662204      9.633295      9.112371      8.767643      9.349355      9.883766      10.363525      10.544215      10.112549      10.313388      10.702760      10.841342      10.489085      10.100762      9.680161      9.415109      9.882589      7.332518      7.798979      8.286368      7.869301      8.400051      8.766187      9.233027      8.918100      8.149632      8.558664      7.982686      7.508307      6.856372      7.394747      6.803044      6.203868      4.768031      5.527963      6.247453      5.560940      6.363447      6.970736      7.685553      7.160644      5.903829      6.568834      5.679621      4.912230      3.925757      4.789527      3.916607      2.966177      1.445191      0.643833      -0.556202      0.297745      1.158940      2.044454      3.070180      2.249432      3.234397      3.992599      4.818890      4.120366      3.427087      2.730852      1.737966      2.486412      5.031735      4.434740      3.627835      4.273377      4.914158      5.556340      6.212193      5.622715      6.252952      6.793534      7.307189      6.811638      6.310943      5.802939      5.157688      5.708736      2.910825      3.736019      4.242002      3.461958      4.029697      4.763643      5.286479      4.597560      2.971936      3.828022      3.211803      2.304272      1.632285      2.593952      1.993149      0.977016      -1.371558      -0.143007      0.571812      -0.591800      0.200125      1.301885      2.023679      0.978124      -1.421598      -0.169147      -1.004533      -2.314302      -3.239792      -1.861762      -2.712191      -4.167033      -15.507864      -17.279825      -19.471272      -17.457954      -16.026497      -15.167535      -13.119139      -14.118276      -12.222646      -11.157277      -9.283938      -10.368629      -11.644696      -13.559535      -15.147277      -13.083508      -11.100237      -9.787729      -8.007189      -9.208718      -7.418430      -5.736405      -4.725669      -6.316710      -5.248958      -3.729676      -2.781481      -4.249562      -5.824868      -6.867718      -8.578187      -7.504539      -6.470533      -5.437941      -3.826764      -4.822877      -3.287744      -1.865876      -0.960914      -2.334820      -1.362026      -0.043113      0.908523      -0.344036      -1.718933      -2.802081      -4.366182      -3.220899      -4.853356      -6.618064      -7.868629      -6.055428      -7.167583      -8.227820      -10.089385      -9.012641      -10.967630      -12.047081      -14.089405      -13.024844      -11.847774      -10.541147      -8.514791      -9.801813      -5.298057      -7.023273      -8.983698      -7.136002      -5.046267      -2.791717      -1.326194      -3.376051      -1.836370      0.022560      1.257756      -0.423990      -2.032894      -3.597700      -5.201431      -3.517461      -1.968914      -0.599938      0.706150      -0.551846      0.738884      1.909321      2.962140      1.891301      3.098236      4.054140      5.159199      4.328487      3.405341      2.037570      0.865529      2.383658      3.895488      5.339411      6.050282      4.760096      5.540887      6.243127      7.270425      6.692545      7.746136      8.210430      9.042247      8.676074      8.269748      7.230594      6.660594      7.820816      7.327083      6.786733      5.346097      6.033237      4.556031      2.942137      1.895615      3.696713      2.758665      0.752135      -0.491296      1.739898      3.786158      5.561669      6.198468      4.597385      -7.573254      -12.078469      -14.174963      -9.156617      -4.525866      -0.953415      -0.063275      -3.401027      -2.266362      0.826473      1.701909      -1.146359      -4.557185      -8.248893      -10.109046      -6.036220      -1.805039      -4.837307      -6.491994      -3.144687      -0.058215      2.551993      3.368278      0.986029      1.978100      4.144569      4.876590      2.912558      0.639395      -1.836766      -3.285383      -0.542723      -13.314561      -11.081639      -9.111491      -11.222022      -8.783786      -6.848795      -4.375864      -6.078743      -9.829072      -7.898196      -10.849870      -13.044811      -15.823701      -13.462281      -15.679249      -18.173088      -23.550690      -20.795712      -18.293440      -20.851881      -17.819592      -15.367155      -11.862086      -13.981684      -18.355635      -16.161638      -20.415489      -23.191677      -26.082561      -23.466972      -26.446648      -29.496172      -30.726297      -42.249882      -34.427773      -28.654707      -31.440792      -28.163355      -27.344120      -25.401327      -25.213808      -22.460617      -23.184654      -24.660631      -24.427401      -25.697765      -27.434252      -19.724806      -20.510025      -22.587713      -22.128393      -20.864868      -19.846489      -17.349354      -18.530182      -16.230145      -14.963953      -12.692750      -13.995628      -15.175162      -16.200071      -18.354317      -17.409910      -24.027821      -21.717571      -19.367910      -21.180490      -19.709913      -17.908434      -17.309570      -19.571825      -24.792524      -22.019514      -21.351068      -22.706570      -24.144682      -22.813789      -26.438187      -29.039095      -35.773102      -32.028679      -24.979366      -23.568283      -28.174015      -32.722282      -42.161366      -38.183788      -47.104267      -48.399418      -44.569321      -39.475990      -42.063095      10.924497      11.063210      11.070115      10.934279      10.794869      10.651866      10.635610      10.781962      10.765151      10.614883      10.588918      10.743747      10.894228      10.911348      11.053452      11.040312      11.181967      11.191462      11.325403      11.319191      11.452030      11.580593      11.581409      11.455345      11.456798      11.580767      11.578928      11.456706      11.331247      11.329294      11.198128      11.202416      11.204723      11.205396      11.330631      11.331594      11.455348      11.576121      11.572549      11.452969      11.449785      11.568389      11.563800      11.445987      11.325774      11.328615      11.204740      11.203021      11.077612      10.949448      10.948430      11.078042      11.074627      11.077151      10.945809      10.941229      10.804474      10.811306      10.673598      10.664331      10.680187      10.815828      10.818448      10.684554      10.547733      10.407979      10.399709      10.541478      10.520794      10.532668      10.388533      10.373893      10.223713      10.241260      10.090979      10.070410      10.107243      10.254928      10.265329      10.119870      9.971745      9.956828      9.803924      9.821156      9.668350      9.513604      9.491879      9.648830      9.624556      9.465051      9.432240      9.594693      9.755515      9.914230      9.937897      9.782303      9.682782      9.849285      9.885004      9.722676      9.558301      9.392449      9.344543      9.514307      9.461494      9.287233      9.219064      9.398487      9.577118      9.634693      9.806012      9.753983      9.928240      10.099239      10.140318      9.974740      10.013214      10.044777      10.201589      10.174092      10.331580      10.355151      10.505278      10.485461      10.460590      10.302352      10.266526      10.429811      10.392148      10.223034      10.170661      10.346497      10.226033      10.291599      10.108033      10.033593      9.836135      9.919730      9.727104      9.634113      9.805943      9.990354      10.049691      9.872451      9.691833      9.618028      9.427480      9.508596      9.323729      9.138390      9.043353      9.235462      9.131710      8.931865      8.801579      9.010251      9.219799      9.428283      9.530828      9.331910      8.936313      9.168118      9.308198      9.088806      8.868597      8.649867      8.473798      8.703968      8.513273      8.270112      8.035198      8.293085      8.554842      8.759403      9.005302      8.816704      9.075809      9.330274      9.487278      9.248489      9.397239      9.524924      9.737664      9.622180      9.842018      9.945582      10.148185      10.056231      9.948115      9.720668      9.579028      9.821524      10.057426      10.169288      10.383863      10.286372      10.507833      10.721092      10.791375      10.591412      10.661996      10.850451      10.899778      10.721269      10.536289      10.345169      10.264498      10.466535      10.413177      10.594810      10.643581      10.470177      10.517632      10.556834      10.716966      10.683916      10.845218      10.872446      11.023192      11.001410      10.974188      10.811646      10.770715      10.940645      11.104342      11.261582      11.282018      11.131027      11.152373      11.169132      11.310228      11.298022      11.438334      11.446496      11.578028      11.573379      11.566272      11.427087      11.412230      11.556282      11.369260      11.525682      11.542932      11.393176      11.236001      11.071463      11.031423      11.204465      11.166059      10.983124      10.925330      11.119752      11.303745      11.339731      11.503929      11.476989      11.639529      11.658738      11.804546      11.791777      11.934466      12.068567      12.071950      11.942001      11.947089      12.073476      12.073410      11.950065      11.820948      11.685410      11.673851      11.814127      11.693895      11.825391      11.827798      11.699741      11.703330      11.705003      11.827690      11.828474      11.949190      11.946437      12.061650      12.065932      12.069437      11.950860      11.951232      12.071993      12.188316      12.300865      12.295417      12.184094      12.179203      12.173775      12.283269      12.289516      12.397375      12.390576      12.496109      12.503243      12.510293      12.403975      12.410290      12.517188      12.421673      12.530200      12.523853      12.416225      12.305740      12.191716      12.194125      12.309908      12.313216      12.195354      12.195192      12.315496      12.430601      12.426511      12.536131      12.541534      12.649185      12.754281      12.747318      12.642856      12.636169      12.629218      12.732803      12.740134      12.842496      12.834953      12.935843      12.943476      12.951130      12.849986      12.857362      12.958756      13.058546      13.050786      13.148680      13.156489      13.251916      13.343525      13.335757      13.244110      13.236444      13.328162      13.320758      13.228942      13.133379      13.140966      13.043068      13.035429      13.027903      13.020516      13.118679      13.125942      13.221620      13.313558      13.306574      13.214497      13.207585      13.299818      13.293299      13.200899      13.104746      13.111609      13.013296      13.006262      12.906270      12.913456      12.812493      12.805196      12.703192      12.600222      12.607525      12.710538      12.717953      12.614830      12.622082      12.725390      12.827409      12.928271      12.920798      12.819909      12.784295      12.885874      12.879521      12.777736      12.675179      12.571898      12.578771      12.681917      12.688850      12.585804      12.592967      12.695951      12.798046      12.791072      12.892460      12.899264      12.999432      12.992821      13.091697      13.098104      13.194447      13.287022      13.280993      13.188236      13.182275      13.275218      13.269700      13.176569      13.079618      13.085531      12.986444      12.980309      12.974430      12.968813      13.068568      13.073960      13.171123      13.264441      13.259445      13.165939      13.161022      13.254711      13.250242      13.156373      13.058591      13.063443      12.963465      12.958391      12.856683      12.753989      12.759525      12.861986      12.873415      12.867567      12.765337      12.771411      12.668657      12.662373      12.558751      12.565217      12.552526      12.656342      12.650581      12.546558      12.441908      12.448050      12.342809      12.336536      12.230300      12.123019      12.129358      12.236644      12.243165      12.135823      12.142361      12.249822      12.355968      12.461033      12.454433      12.349298      12.383655      12.488949      12.481817      12.376677      12.369701      12.474760      12.467819      12.362783      12.148912      12.256568      12.263349      12.155409      12.161777      12.270105      12.276770      12.167931      11.942792      12.056741      12.051339      11.938427      11.933493      12.045567      12.039530      11.928125      11.698089      11.814404      11.818865      11.701380      11.703774      11.822683      11.825688      11.705061      11.804133      11.689538      11.694086      11.809449      11.922443      12.033324      12.027035      11.916553      11.910551      12.020736      12.014496      11.904520      11.792881      11.798576      11.684590      11.679372      11.673996      11.668564      11.781435      11.787140      11.898535      12.008374      12.002422      11.892661      11.886957      11.996689      11.991215      11.881475      11.770416      11.657874      11.663164      11.775840      11.652762      11.765223      11.760307      11.647891      11.643312      11.639070      11.751480      11.755713      11.866794      11.862606      11.972588      11.976696      11.981188      11.871356      11.876262      11.986036      12.094705      12.202419      12.197798      12.089952      12.085566      12.081564      12.189671      12.193542      12.300756      12.297030      12.403750      12.407317      12.411250      12.304858      12.309323      12.415541      12.319287      12.425148      12.420177      12.314138      12.207390      12.099799      12.105208      12.212687      12.218290      12.110905      12.116855      12.224171      12.330508      12.324751      12.430437      12.436030      12.540869      12.645103      12.639920      12.535471      12.530380      12.525608      12.630481      12.635043      12.739123      12.734776      12.838362      12.842497      12.846931      12.743780      12.748737      12.851662      12.953598      12.949089      13.049715      13.054014      13.151995      13.246038      13.242100      13.147887      13.144053      13.238426      13.235018      13.140491      13.041960      13.045696      12.944869      12.940940      12.937305      12.933967      13.035339      13.038507      13.137204      13.231874      13.228995      13.134191      13.131451      13.226379      13.224028      13.128985      13.029862      13.032457      12.930926      12.928185      12.824903      12.827800      12.723640      12.720579      12.615531      12.509908      12.513308      12.618761      12.622333      12.517062      12.521165      12.626242      12.730743      12.834532      12.831010      12.727030      12.713400      12.818119      12.816499      12.711682      12.606124      12.499983      12.501904      12.607942      12.610118      12.504200      12.506870      12.612649      12.717851      12.715456      12.820061      12.822323      12.925747      12.923610      13.025533      13.027554      13.126795      13.221939      13.220113      13.124878      13.123236      13.218548      13.217245      13.121867      13.022356      13.023800      12.921777      12.920248      12.919024      12.918106      13.020333      13.021200      13.120772      13.216204      13.215423      13.119951      13.119404      13.214902      13.214642      13.119130      13.019466      13.019755      12.917494      12.917188      12.813253      12.708240      12.708584      12.813578      12.815202      12.814228      12.709273      12.710307      12.604667      12.603572      12.497285      12.498443      12.496512      12.602841      12.602476      12.496125      12.389245      12.389653      12.282248      12.281819      12.173790      12.065067      12.065536      12.174239      12.175137      12.066471      12.067870      12.176479      12.284389      12.391689      12.390469      12.283106      12.293693      12.400560      12.397753      12.290752      12.288217    