<VTKFile type="UnstructuredGrid" version="1.0" byte_order="LittleEndian" header_type="UInt64">
  <UnstructuredGrid>
    <Piece NumberOfPoints="40574" NumberOfCells="18683">
      <CellData Scalars="Scalars_">
        <DataArray type="Float32" Name="Scalars_" format="ascii">
     24.259176      24.259277      24.232481      24.232378      24.188717      24.138620      24.138729      24.188822      24.189034      24.138950      24.139280      24.189348      24.232992      24.232685      24.259478      24.259781      24.260185      24.260691      24.233915      24.233402      24.189772      24.139721      24.140274      24.190300      24.190937      24.140938      24.141716      24.191683      24.235260      24.234535      24.261301      24.262016      24.262836      24.263763      24.237032      24.236092      24.192539      24.142611      24.143620      24.193508      24.194590      24.144745      24.145992      24.195786      24.239246      24.238083      24.264799      24.265947      24.267206      24.268581      24.241917      24.240524      24.197098      24.147358      24.148848      24.198528      24.200081      24.150463      24.152205      24.201757      24.245060      24.243429      24.270073      24.271683      24.273417      24.275272      24.248695      24.246815      24.203558      24.154076      24.156078      24.205486      24.207546      24.158216      24.160490      24.209740      24.252844      24.250704      24.277256      24.279369      24.281616      24.283997      24.257526      24.255117      24.212069      24.162905      24.165461      24.214539      24.217148      24.168163      24.171015      24.219904      24.262770      24.260077      24.286518      24.289179      24.291985      24.294939      24.268593      24.265606      24.222807      24.174017      24.177174      24.225861      24.229069      24.180489      24.183964      24.232435      24.275024      24.271732      24.298042      24.301300      24.304714      24.308287      24.282085      24.278475      24.235960      24.187603      24.191408      24.239649      24.243504      24.195383      24.199530      24.247526      24.289799      24.285860      24.312021      24.315920      24.280615      24.233599      24.239210      24.286070      24.327578      24.353319      24.348024      24.322229      24.317062      24.342909      24.337973      24.312077      24.270260      24.275347      24.228176      24.222942      24.217896      24.265356      24.260633      24.213032      24.208353      24.203852      24.251720      24.256088      24.298189      24.293909      24.319986      24.324223      24.328632      24.302641      24.307270      24.333214      24.251003      24.245010      24.291712      24.297539      24.338823      24.333109      24.358795      24.364452      24.376312      24.370293      24.344721      24.350801      24.309753      24.303553      24.257185      24.263557      24.276871      24.270121      24.316139      24.322710      24.363510      24.357065      24.382513      24.388893      24.402185      24.395452      24.370134      24.376934      24.336395      24.329462      24.283806      24.290924      24.389593      24.345432      24.353794      24.397781      24.437218      24.461884      24.453905      24.429167      24.421247      24.446062      24.438358      24.413469      24.373617      24.381535      24.337194      24.329090      24.321135      24.365849      24.358236      24.313332      24.305691      24.298220      24.343504      24.350786      24.391056      24.383909      24.409090      24.416164      24.423405      24.398367      24.405840      24.430805      24.370834      24.362267      24.406090      24.414505      24.453684      24.445395      24.469986      24.478205      24.494942      24.486526      24.462076      24.470558      24.431608      24.423018      24.379480      24.388187      24.405697      24.396935      24.440266      24.448967      24.487738      24.479116      24.503439      24.512003      24.529276      24.520620      24.496403      24.505098      24.466434      24.457697      24.414452      24.423170      23.895626      23.838470      23.826117      23.887835      23.944857      23.997993      23.998375      23.948664      23.949705      23.996656      23.993235      23.948502      23.901363      23.899920      23.846552      23.851135      23.796576      23.788162      23.722240      23.735601      23.665098      23.580799      23.551003      23.644955      23.618610      23.513399      23.466673      23.584911      23.679327      23.703815      23.775537      23.757816      23.733929      23.702581      23.607170      23.647587      23.542498      23.409277      23.339367      23.489733      23.424665      23.254652      23.152178      23.344957      23.493246      23.556391      23.662199      23.610878      23.711775      23.803070      23.834671      23.752934      23.784620      23.808548      23.875753      23.858423      23.926294      23.937654      23.995029      23.988909      23.978941      23.909855      23.887224      23.964306      24.033848      24.096025      24.098761      24.041826      24.046402      24.048164      24.097397      24.099075      24.147573      24.143305      24.186676      24.192801      24.198021      24.150475      24.151709      24.202137      24.248724      24.242619      24.285530      24.292929      24.336123      24.379396      24.370834      24.327959      24.319563      24.362164      24.353420      24.310993      24.269564      24.228436      24.235809      24.277714      24.252571      24.212433      24.220610      24.261160      24.302303      24.344641      24.335855      24.293537      24.284735      24.327097      24.318388      24.275934      24.235064      24.243855      24.203995      24.195368      24.156233      24.117012      24.124599      24.164480      24.179817      24.172377      24.131618      24.137915      24.094078      24.089426      24.045172      24.047613      24.041195      24.083694      24.077099      24.035980      24.029776      24.069824      24.062025      24.022791      24.015198      24.007145      24.045338      24.053825      24.092045      24.083302      24.121424      24.130264      24.139053      24.100632      24.108986      24.147732      24.186619      24.177801      24.217432      24.226244      24.267166      24.309750      24.301203      24.258459      24.249834      24.292767      24.284454      24.241314      24.199963      24.160149      24.168964      24.208662      24.182875      24.142708      24.151386      24.191360      24.232916      24.276281      24.268255      24.224655      24.216545      24.260389      24.252689      24.208597      24.166319      24.174522      24.134138      24.125696      24.086374      24.047962      24.056759      24.095020      24.112576      24.103764      24.065609      24.074472      24.036652      24.027842      23.990118      23.998751      23.981329      24.018970      24.010092      23.972454      23.934786      23.896860      23.905418      23.943560      23.960464      23.952148      23.913675      23.921515      23.881611      23.874432      23.834093      23.840382      23.827017      23.866667      23.858458      23.819326      23.779142      23.786085      23.743349      23.737476      23.693781      23.647409      23.649605      23.698126      23.700998      23.649807      23.647602      23.702076      23.751532      23.748119      23.792200      23.797281      23.801079      23.803297      23.753036      23.753290      23.700991      23.642513      23.633984      23.697306      23.690512      23.621370      23.603928      23.680010      23.744738      23.750353      23.803583      23.801512      23.852858      23.852245      23.897751      23.900494      23.945482      23.988443      23.982561      23.941006      23.935364      23.975815      23.968395      23.928799      23.888035      23.845676      23.849731      23.893497      23.805214      23.766834      23.775911      23.814219      23.852316      23.890350      23.881653      23.843443      23.834669      23.873087      23.864670      23.826017      23.787413      23.796268      23.757765      23.748741      23.709892      23.719034      23.679943      23.670746      23.631166      23.591015      23.600054      23.640337      23.649340      23.608807      23.617159      23.658087      23.698038      23.689062      23.728168      23.737244      23.746201      23.754963      23.715235      23.706793      23.666479      23.624983      23.632120      23.674398      23.681704      23.638388      23.643570      23.688229      23.730719      23.723251      23.763447      23.771547      23.811165      23.849920      23.841154      23.802650      23.793882      23.784946      23.823242      23.832239      23.870234      23.861259      23.899157      23.908041      23.916969      23.879196      23.888092      23.925901      23.963549      24.001247      23.992476      23.954662      23.945833      23.937094      23.975256      23.983803      24.022179      24.013863      24.053177      24.061237      24.069466      24.030647      24.039249      24.077850      24.117401      24.109264      24.150408      24.158278      24.200817      24.245165      24.237820      24.193216      24.185799      24.230658      24.223686      24.178572      24.135216      24.093515      24.101299      24.142717      24.120790      24.078518      24.085920      24.127905      24.171535      24.216904      24.210314      24.164696      24.158052      24.203918      24.197718      24.151609      24.107161      24.113874      24.071314      24.064314      24.022812      23.982355      23.989948      24.030109      24.045298      24.037605      23.997736      24.005711      23.966854      23.958612      23.919987      23.928473      23.911659      23.950546      23.942663      23.903500      23.895521      23.934973      23.927479      23.887733      23.880142      23.872753      23.913109      23.920191      23.960785      23.954008      23.995670      24.002146      24.008827      23.967770      23.974960      24.015717      24.057514      24.050922      24.094339      24.100649      24.145363      24.191713      24.185902      24.139318      24.133471      24.180286      24.174862      24.127819      24.082327      24.038353      24.044535      24.088232      24.071117      24.026602      24.032375      24.076622      24.122366      24.169628      24.164585      24.117105      24.112038      24.159729      24.155056      24.107161      24.060696      24.065809      24.021030      24.015659      23.971842      23.928995      23.934935      23.977491      23.989405      23.983345      23.941084      23.947441      23.906235      23.899570      23.858597      23.865570      23.851833      23.893118      23.886877      23.845284      23.804049      23.763042      23.770222      23.810913      23.825274      23.817987      23.777611      23.785206      23.745258      23.737356      23.697134      23.705336      23.689125      23.729654      23.722160      23.681314      23.640430      23.648552      23.607866      23.599440      23.558271      23.516850      23.525852      23.566992      23.575878      23.535000      23.544266      23.584908      23.625242      23.616472      23.656864      23.665358      23.674015      23.682819      23.643196      23.634159      23.594059      23.553619      23.563021      23.603298      23.612593      23.572426      23.581778      23.621899      23.661526      23.652330      23.691753      23.700787      23.739799      23.730967      23.770071      23.778673      23.817509      23.856417      23.848343      23.809162      23.800989      23.840456      23.832764      23.793001      23.753351      23.713717      23.722267      23.761625      22.853254      22.793579      22.792730      22.854137      22.913654      22.970997      22.967449      22.911293      22.906942      22.962132      22.955414      22.901011      22.845139      22.850101      22.791821      22.787977      22.782478      22.838737      22.831215      22.775681      22.767874      22.759298      22.813789      22.822828      22.876793      22.867355      22.919895      22.929649      22.938942      22.885681      22.893831      22.947599      22.999994      23.051043      23.041698      22.990944      22.981344      22.971355      23.021730      23.031878      23.081280      23.071035      23.119310      23.129595      23.139658      23.091249      23.100811      23.149374      23.158588      23.167116      23.118002      23.109795      23.059734      23.008305      23.015642      23.067554      23.074238      23.021721      23.026197      23.079460      23.131029      23.181128      23.174723      23.125181      23.270121      23.223001      23.229927      23.277544      23.324045      23.369461      23.361134      23.316149      23.307480      23.352184      23.342781      23.298241      23.252737      23.261774      23.215010      23.206209      23.196812      23.243196      23.233305      23.186989      23.176880      23.166597      23.212952      23.223190      23.268587      23.258427      23.303089      23.313135      23.323153      23.278671      23.288591      23.333065      23.376684      23.419523      23.409748      23.366817      23.356905      23.347010      23.390261      23.399977      23.442432      23.432928      23.475096      23.484362      23.493746      23.452028      23.461672      23.503220      23.512737      23.522255      23.480888      23.471312      23.429237      23.386423      23.395939      23.438814      23.448158      23.405119      23.413818      23.457153      23.499527      23.541031      23.531710      23.490324      23.494200      23.440922      23.435175      23.492039      23.545767      23.596220      23.592894      23.544882      23.541958      23.588066      23.582029      23.537386      23.490913      23.442600      23.443171      23.493652      23.480520      23.435123      23.439764      23.486416      23.531490      23.575027      23.567268      23.524548      23.516785      23.558922      23.550137      23.508392      23.465664      23.421867      23.429054      23.473520      23.239239      23.235470      23.283762      23.288424      23.336473      23.330921      23.376957      23.383364      23.391592      23.388371      23.340330      23.342037      23.291269      23.291101      23.240753      23.239426      23.225176      23.234529      23.288280      23.281336      23.336634      23.341032      23.392565      23.390717      23.375626      23.385353      23.327997      23.314096      23.251450      23.269461      23.210264      23.188446      23.028130      22.963360      22.929329      22.997072      23.061989      23.125429      23.150612      23.090174      23.110312      23.168259      23.179827      23.123936      23.066347      23.006319      22.988474      23.050688      23.081955      23.025362      23.018246      23.076412      23.132301      23.186502      23.189255      23.136431      23.137161      23.188868      23.185986      23.135174      23.082825      23.028652      23.028580      23.083853      22.780544      22.788641      22.852203      22.846788      22.910366      22.913542      22.972324      22.970896      22.957026      22.966059      22.903423      22.891870      22.822174      22.837097      22.767508      22.748411      22.686314      22.721891      22.800877      22.771841      22.850698      22.874697      22.942846      22.922375      22.856741      22.894232      22.818447      22.776257      22.683796      22.733450      22.639696      22.579666      21.790308      21.452513      21.112194      21.545685      21.779066      21.840679      22.087502      21.996002      22.180599      22.283575      22.440235      22.335358      22.175816      21.999567      21.729595      21.955294      22.138800      22.322435      22.443100      22.287476      22.407337      22.503357      22.620642      22.541397      22.653812      22.722145      22.807884      22.745199      22.665674      22.568611      22.463551      22.565584      22.656759      22.741837      22.831165      22.751402      22.826063      22.884377      22.955564      22.901230      22.973574      23.023886      23.090921      23.044888      22.984631      22.908266      22.824575      22.906836      22.807430      22.681400      22.584793      22.718397      22.628937      22.537722      22.388964      22.487238      22.310364      22.204165      21.976074      22.090525      22.210655      22.323305      22.522572      22.417862      22.775154      22.640564      22.456377      22.614017      22.782784      22.954578      23.062902      22.918173      23.025522      23.148796      23.216274      23.110023      23.003952      22.903065      22.786673      22.902027      22.992523      23.082895      23.144041      23.062918      23.117060      23.158062      23.225824      23.190767      23.265162      23.293667      23.360497      23.338707      23.308720      23.226686      23.175919      23.268665      23.358028      23.441740      23.462381      23.387865      23.409742      23.425112      23.486542      23.476955      23.539471      23.544147      23.597704      23.596943      23.593458      23.531080      23.518200      23.586697      23.576010      23.560646      23.475161      23.499918      23.413738      23.318481      23.267109      23.376839      23.329208      23.201357      23.118149      23.268669      23.401041      23.512304      23.539740      23.442684      22.198236      21.601973      21.134823      21.893995      22.507799      22.900349      23.028814      22.692085      22.852776      23.139454      23.233665      22.990396      22.663935      22.278360      21.976053      22.452686      22.981350      22.722580      22.523588      22.838278      23.106592      23.312984      23.378990      23.203506      23.283424      23.433243      23.477222      23.348577      23.192638      23.013775      22.883739      23.098064      21.934999      22.224987      22.412123      22.160414      22.401051      22.613003      22.819017      22.650501      22.186789      22.442322      22.137327      21.809870      21.463007      21.848166      21.572128      21.118422      19.842466      20.551298      20.991346      20.419590      20.897860      21.403429      21.875473      21.499928      20.535658      21.053532      20.265038      19.462748      18.941875      19.737028      18.956949      17.853054      17.726534      12.762429      16.126989      18.622543      17.178667      18.507423      19.093412      19.695082      19.506411      20.279957      20.284164      19.867266      20.053610      19.688622      18.979008      21.061821      20.962374      20.513853      20.537254      20.811544      20.889610      21.374872      21.263800      21.642548      21.763041      22.074106      21.955168      21.818064      21.696953      21.359922      21.480677      20.170183      20.692543      21.265715      20.955240      21.250338      21.529263      21.526350      21.118233      19.813976      20.572746      20.954670      20.671583      20.316578      20.628368      19.508408      18.645029      15.824326      17.467842      20.083580      20.463146      18.704483      16.988064      12.861702      14.716901      10.986866      10.148179      12.428711      14.040599      12.682324      23.155712      23.202797      23.195198      23.147877      23.100042      23.051662      23.059912      23.108095      23.116453      23.068468      23.077320      23.125105      23.172279      23.163849      23.210695      23.218884      23.264961      23.257032      23.302908      23.310562      23.355740      23.400547      23.393473      23.348372      23.341278      23.386667      23.380135      23.334467      23.288450      23.295536      23.249392      23.242043      23.234995      23.228254      23.275167      23.281660      23.327942      23.373882      23.367910      23.321707      23.315769      23.362226      23.356831      23.310131      23.263105      23.268982      23.221828      23.215723      23.167946      23.119747      23.126282      23.174273      23.187906      23.180929      23.133154      23.140354      23.092308      23.084900      23.036137      23.043734      23.028879      23.077826      23.071096      23.021971      22.972351      22.922226      22.929438      22.979422      22.994612      22.986843      22.937006      22.944921      22.894655      22.886614      22.835667      22.843813      22.827869      22.878920      22.871588      22.820435      22.768774      22.776293      22.724203      22.716621      22.663998      22.610928      22.618580      22.671623      22.679605      22.626585      22.634926      22.687927      22.740429      22.792398      22.784172      22.732143      22.757963      22.809830      22.800957      22.749041      22.696571      22.643583      22.652534      22.705521      22.714748      22.661755      22.671219      22.724230      22.776651      22.767176      22.818998      22.828444      22.879576      22.930031      22.920738      22.870192      22.861092      22.852291      22.903032      22.911732      22.961746      22.953173      23.002712      23.011135      23.019867      22.970629      22.979803      23.028894      23.038198      22.989250      22.998949      23.047760      23.067562      23.057556      23.008875      23.018999      22.969624      22.959419      22.909180      22.919428      22.899097      22.949398      22.939592      22.889219      22.838139      22.848055      22.796289      22.786367      22.733936      22.680891      22.690735      22.743834      22.753880      22.700705      22.710747      22.764025      22.816601      22.868414      22.858160      22.806381      22.837196      22.889170      22.878769      22.826893      22.774214      22.720798      22.730780      22.784376      22.794430      22.740602      22.750154      22.804276      22.857527      22.847439      22.899548      22.909822      22.961109      23.011374      23.000912      22.950710      22.940250      22.929802      22.979975      22.990421      23.039686      23.029284      23.077742      23.088058      23.098465      23.050156      23.060631      23.108906      23.156237      23.145874      23.192423      23.202673      23.248266      23.293079      23.283157      23.238165      23.228168      23.273363      23.263731      23.218321      23.172220      23.125376      23.135569      23.182257      23.115335      23.162352      23.152681      23.105482      23.095846      23.086452      23.134039      23.143236      23.189968      23.180990      23.227350      23.236084      23.245071      23.199196      23.208654      23.254293      23.299324      23.343813      23.335125      23.290361      23.281637      23.273165      23.318489      23.326681      23.371277      23.363377      23.407887      23.415483      23.423330      23.379427      23.387821      23.431419      23.405287      23.448284      23.439741      23.396446      23.352726      23.308512      23.317900      23.361851      23.371166      23.327467      23.337181      23.380646      23.423552      23.414330      23.457037      23.465981      23.508015      23.499365      23.541388      23.549730      23.591208      23.632511      23.624800      23.583178      23.575361      23.617306      23.610033      23.567764      23.525335      23.482681      23.490915      23.533253      23.474672      23.517643      23.510185      23.466896      23.459360      23.452072      23.495991      23.502966      23.546356      23.539694      23.583233      23.589582      23.596169      23.553257      23.560396      23.602985      23.645472      23.687916      23.681728      23.638973      23.632702      23.626659      23.670029      23.675766      23.718843      23.713404      23.756859      23.762009      23.767372      23.724503      23.730381      23.772947      23.742792      23.784744      23.778738      23.736477      23.694324      23.652199      23.659149      23.700956      23.707808      23.666323      23.673712      23.714876      23.756077      23.749327      23.790964      23.797400      23.838945      23.880846      23.875023      23.832821      23.826906      23.821205      23.864004      23.869410      23.912411      23.907290      23.951256      23.956106      23.961151      23.917734      23.923262      23.966396      24.010485      24.005508      24.051046      24.055777      24.102470      24.150568      24.146257      24.097965      24.093641      24.142124      24.138166      24.089499      24.042149      24.046505      24.000723      23.996130      23.991724      23.987505      24.033978      24.037973      24.085531      24.134378      24.130760      24.081738      24.078114      24.127306      24.124014      24.074657      24.026512      24.030159      23.983467      23.979609      23.933773      23.937862      23.893114      23.888779      23.844412      23.800489      23.805357      23.849009      23.853806      23.810432      23.815714      23.858803      23.902369      23.946602      23.942137      23.897644      23.876907      23.922598      23.919230      23.873322      23.827986      23.783049      23.787106      23.831802      23.835812      23.791365      23.795826      23.840014      23.884634      23.880676      23.926144      23.929867      23.975927      23.972420      24.019730      24.023037      24.071365      24.120882      24.117905      24.068235      24.065264      24.115080      24.112408      24.062447      24.013603      24.016586      23.969086      23.965919      23.962919      23.960083      24.008118      24.010782      24.059784      24.109880      24.107498      24.057270      24.054905      24.105259      24.103157      24.052687      24.003248      24.005608      23.957411      23.954897      23.907476      23.860781      23.863649      23.910160      23.916035      23.913013      23.866693      23.869917      23.824360      23.820923      23.775528      23.779188      23.772062      23.817673      23.814610      23.768793      23.723192      23.726677      23.681404      23.677698      23.632227      23.586710      23.590881      23.636162      23.640324      23.595289      23.599934      23.644712      23.689465      23.734261      23.730366      23.685328      23.708181      23.751921      23.747192      23.703176      23.698389      23.742674      23.738363      23.693819      23.604811      23.649324      23.654163      23.609924      23.615271      23.659227      23.664515      23.620848      23.533274      23.577120      23.571245      23.527102      23.521175      23.565611      23.560219      23.515499      23.425501      23.470608      23.476568      23.431747      23.438261      23.482788      23.489264      23.445038      23.459471      23.413818      23.419523      23.464907      23.510077      23.555071      23.550165      23.504908      23.499994      23.545507      23.541096      23.495338      23.449400      23.454300      23.408390      23.403242      23.398376      23.393795      23.440411      23.444769      23.490942      23.536932      23.533018      23.486809      23.482937      23.529356      23.525946      23.479332      23.432528      23.385500      23.389502      23.436331      23.381792      23.429005      23.425766      23.378382      23.375271      23.372461      23.420145      23.422812      23.470127      23.467604      23.514864      23.517248      23.519892      23.472925      23.475994      23.522791      23.569429      23.615948      23.613377      23.566694      23.564205      23.561960      23.608927      23.611036      23.657789      23.655811      23.702675      23.704525      23.706579      23.659985      23.662397      23.708838      23.667870      23.713966      23.711300      23.665026      23.618748      23.572405      23.575623      23.621777      23.625032      23.579079      23.582775      23.628515      23.674206      23.670931      23.716837      23.719913      23.765718      23.811731      23.809034      23.762836      23.760149      23.757654      23.804192      23.806522      23.853222      23.851048      23.898386      23.900414      23.902605      23.855568      23.858088      23.904959      23.952541      23.950340      23.998981      24.001041      24.050610      24.101194      24.099365      24.048674      24.046875      24.097668      24.096102      24.045216      23.995296      23.997066      23.948296      23.946402      23.944660      23.943068      23.992182      23.993670      24.043690      24.094664      24.093351      24.042297      24.041037      24.092165      24.091101      24.039906      23.989628      23.990835      23.941624      23.940327      23.891865      23.893257      23.845541      23.844044      23.796675      23.749596      23.751322      23.798285      23.800074      23.753241      23.755352      23.802042      23.849043      23.896517      23.894808      23.847208      23.840553      23.888620      23.887850      23.839724      23.792028      23.744604      23.745564      23.792921      23.793993      23.746716      23.748060      23.795244      23.842712      23.841549      23.889547      23.890627      23.939177      23.938171      23.987619      23.988556      24.038904      24.090158      24.089338      24.038031      24.037283      24.088636      24.088053      24.036661      23.986155      23.986820      23.937311      23.936596      23.936024      23.935596      23.985224      23.985622      24.036165      24.087587      24.087238      24.035793      24.035545      24.087006      24.086889      24.035421      23.984825      23.984959      23.935310      23.935167      23.886311      23.838064      23.838230      23.886465      23.887234      23.886772      23.838562      23.839060      23.791313      23.790777      23.743259      23.743835      23.742876      23.790421      23.790241      23.742683      23.695261      23.69