<VTKFile type="UnstructuredGrid" version="1.0" byte_order="LittleEndian" header_type="UInt64">
  <UnstructuredGrid>
    <Piece NumberOfPoints="40574" NumberOfCells="18683">
      <CellData Scalars="Scalars_">
        <DataArray type="Float32" Name="Scalars_" format="ascii">
     18.685486      18.685595      18.756708      18.756598      18.932272      19.194574      19.194698      18.932388      18.932621      19.194948      19.195318      18.932966      18.757257      18.756929      18.685810      18.686132      18.686556      18.687082      18.758230      18.757692      18.933422      19.195808      19.196417      18.933987      18.934658      19.197138      19.197969      18.935427      18.759598      18.758867      18.687704      18.688419      18.689220      18.690100      18.761318      18.760416      18.936291      19.198902      19.199930      18.937243      18.938274      19.201050      19.202248      18.939379      18.763336      18.762293      18.691053      18.692070      18.693142      18.694260      18.765579      18.764435      18.940544      19.203520      19.204853      18.941765      18.943026      19.206238      19.207661      18.944315      18.767962      18.766760      18.695408      18.696577      18.697752      18.698919      18.770376      18.769171      18.945620      19.209108      19.210567      18.946926      18.948217      19.212025      19.213459      18.949476      18.772703      18.771559      18.700062      18.701162      18.702204      18.703169      18.774811      18.773794      18.950687      19.214855      19.216196      18.951832      18.952888      19.217459      19.218626      18.953838      18.776546      18.775736      18.704039      18.704792      18.705408      18.705864      18.777739      18.777222      18.954659      19.219675      19.220585      18.955330      18.955828      19.221333      19.221895      18.956127      18.778202      18.778072      18.706139      18.706202      18.706030      18.705599      18.777737      18.778099      18.956200      19.222244      19.222353      18.956022      18.955566      19.222197      19.221746      18.954802      18.776121      18.777086      18.704876      18.703835      18.938232      19.207718      19.203766      18.933865      18.753281      18.680285      18.685017      18.757912      18.761969      18.689169      18.692778      18.765484      18.945293      18.942030      19.211115      19.213991      19.216381      18.948059      18.950361      19.218319      19.219837      19.220968      18.953701      18.952230      18.773123      18.774811      18.702446      18.700678      18.698498      18.771029      18.768494      18.695875      19.194052      19.199224      18.928896      18.923288      18.742147      18.748037      18.674940      18.668945      18.654867      18.662266      18.735573      18.728279      18.910006      18.917004      19.188215      19.181675      19.166332      19.174393      18.902256      18.893717      18.711388      18.720230      18.646708      18.637754      18.617321      18.627972      18.701714      18.691175      18.874132      18.884356      19.157454      19.147722      18.775286      19.052351      19.034349      18.756811      18.571293      18.496517      18.515413      18.590075      18.607702      18.533155      18.549776      18.624208      18.808779      18.792597      19.069176      19.084866      19.099461      18.823874      18.837919      19.113005      19.125536      19.137096      18.863010      18.850952      18.667353      18.679733      18.605766      18.593269      18.579798      18.653996      18.639627      18.565311      18.994644      19.015127      18.737135      18.716217      18.530115      18.551317      18.476429      18.455118      18.408682      18.432547      18.507650      18.483885      18.670509      18.694021      18.972857      18.949720      18.899221      18.925192      18.645639      18.619377      18.432320      18.458786      18.383488      18.356936      18.299610      18.328987      18.404448      18.375135      18.562502      18.591677      18.871761      18.842760      22.740416      22.981716      22.944345      22.706650      22.445406      22.160933      22.188551      22.475882      22.501814      22.212364      22.232857      22.523829      22.792706      22.768843      23.012959      23.038980      23.261959      23.233364      23.428551      23.460459      23.632647      23.776083      23.732771      23.596096      23.552006      23.680611      23.618195      23.499138      23.343821      23.390043      23.198895      23.157526      23.108040      23.048971      23.222740      23.288570      23.436033      23.543880      23.455708      23.360981      23.271969      23.351286      23.227583      23.166651      23.051714      23.144501      22.978556      22.894661      22.708029      22.496677      22.563099      22.783352      22.846619      22.899752      22.666620      22.619213      22.367701      22.409639      22.128935      22.091887      22.049004      22.318542      22.260925      21.999372      21.710972      21.396254      21.434189      21.753992      21.791681      21.824699      21.497854      21.467896      21.122486      21.150299      20.785040      20.758585      20.729605      21.091625      21.057375      20.697857      20.322578      20.352764      19.967463      19.938139      19.553661      19.182194      19.211081      19.582611      19.609774      19.238329      19.264004      19.635239      20.020220      20.406347      20.380630      19.994781      20.065876      20.451931      20.430067      20.043884      19.659086      19.288166      19.310875      19.681389      19.702223      19.332188      19.352156      19.721651      20.105211      20.086290      20.472061      20.490572      20.869547      21.236567      21.218283      20.851276      20.809183      20.831205      21.197950      21.175367      21.524479      21.548136      21.878950      21.853624      21.901106      21.569139      21.587767      21.920462      21.937338      21.604258      21.618822      21.952007      21.964708      21.975649      21.642889      21.631645      21.280840      21.292547      20.927143      20.914846      20.901217      21.267696      21.252985      20.886154      20.507563      20.523130      20.138882      20.122717      19.739737      19.370829      19.388258      19.756538      19.772112      19.404490      19.419571      19.786514      20.167459      20.550329      20.537359      20.153774      20.191446      20.572777      20.562113      20.179996      19.799795      19.433548      19.446468      19.812004      19.823195      19.458372      19.469305      19.833410      20.211298      20.201862      20.582388      20.591005      20.964670      21.327070      21.320101      20.956884      20.938194      20.948082      21.312082      21.302927      21.652695      21.661188      21.992941      21.985008      21.999584      21.668482      21.674671      22.005060      22.316595      22.608206      22.603905      22.311754      22.298168      22.305660      22.598248      22.591061      22.862991      22.870018      23.120592      23.113546      23.125786      22.875366      22.879240      23.129366      23.358471      23.355007      23.563000      23.566593      23.753864      23.920496      23.915503      23.749802      23.743475      23.907864      23.897133      23.734512      23.549534      23.557419      23.349762      23.342466      23.332800      23.320395      23.525341      23.538984      23.722492      23.882799      23.864267      23.706917      23.687216      23.840851      23.811760      23.662718      23.486712      23.508112      23.304810      23.285534      23.060545      23.078289      22.829233      22.812654      22.542454      22.250448      22.265491      22.558138      22.571260      22.278292      22.289110      22.582144      22.854044      23.104374      23.092749      22.842901      22.879921      23.126635      23.129293      22.881899      22.614050      22.325989      22.325539      22.612812      22.610966      22.324482      22.322880      22.608576      22.874180      22.877325      23.123337      23.119482      23.344534      23.349045      23.554703      23.549603      23.735126      23.901686      23.907701      23.740734      23.745691      23.913006      23.917461      23.749884      23.562984      23.559196      23.352980      23.356249      23.358749      23.360365      23.567957      23.565948      23.753176      23.920908      23.923164      23.755411      23.756414      23.924019      23.923225      23.755976      23.568466      23.568853      23.360962      23.360388      23.131535      22.881813      22.883242      23.132469      23.132320      23.131224      22.883173      22.883656      22.614393      22.614603      22.325768      22.324802      22.323013      22.613325      22.611301      22.320311      22.009474      21.679852      21.684099      22.012922      22.015491      22.017260      21.690098      21.687492      21.342398      21.345865      20.986891      20.982559      20.977449      21.338152      21.333063      20.971504      20.598684      20.605480      20.227423      20.219801      19.842695      19.479305      19.488420      19.851097      19.858658      19.496687      19.504145      19.865419      20.240206      20.616625      20.611443      20.234209      20.250008      20.624825      20.621069      20.245459      19.871424      19.510834      19.516794      19.876713      19.881329      19.522066      19.526686      19.885309      20.257164      20.253895      20.627932      20.630434      20.997408      21.353006      21.352129      20.995707      20.990494      20.993418      21.350679      21.348608      21.691980      21.693195      22.018667      22.018295      22.018431      21.693800      21.693844      22.017645      22.016357      21.693375      21.692438      22.014620      22.012476      22.009968      21.689331      21.691076      21.352638      21.351652      20.999165      20.999403      20.999216      21.353218      21.353355      20.998564      20.632374      20.633791      20.261995      20.259851      19.888689      19.530689      19.534117      19.891508      19.893805      19.537004      19.539387      19.895613      20.264805      20.635208      20.634724      20.263634      20.265882      20.634975      20.635281      20.265543      19.896967      19.541298      19.542774      19.897905      19.898457      19.543846      19.544548      19.898659      20.265501      20.265858      20.634329      20.633373      20.994661      21.344387      21.346634      20.996250      20.998535      20.997553      21.348614      21.350300      21.687241      21.684841      22.004015      22.007133      22.000645      21.682167      21.679253      21.997057      22.296347      22.576208      22.581129      22.300604      22.308504      22.304668      22.585878      22.590418      22.852364      22.847136      23.088264      23.094158      23.082195      22.841719      22.836147      23.075994      23.295851      23.302662      23.503428      23.496033      23.677042      23.839514      23.847982      23.684990      23.692846      23.856365      23.864614      23.700563      23.517864      23.510719      23.309355      23.315889      23.322226      23.328312      23.531528      23.524817      23.708096      23.872677      23.880489      23.715384      23.722366      23.887983      23.895079      23.728975      23.543987      23.537939      23.334099      23.339527      23.115143      23.110384      22.866508      22.870554      22.605701      22.320787      22.318258      22.602400      22.598721      22.315340      22.312073      22.594713      22.857365      23.099842      23.105267      22.862095      24.688652      24.667215      24.669716      24.692417      24.708925      24.718468      24.712820      24.704103      24.697672      24.705709      24.697449      24.689966      24.676075      24.683083      24.662664      24.656483      24.649017      24.667938      24.658926      24.640551      24.631319      24.621517      24.639080      24.649248      24.661724      24.651247      24.657372      24.668089      24.678444      24.671782      24.681259      24.688288      24.688366      24.680824      24.670519      24.678247      24.667677      24.656790      24.648817      24.659807      24.643759      24.632729      24.607759      24.618774      24.629576      24.654547      24.664968      24.640049      24.650059      24.659439      24.684099      24.674879      24.690569      24.697866      24.706549      24.699564      24.707582      24.714176      24.720455      24.714350      24.699575      24.675465      24.667988      24.692419      24.588160      24.633516      24.641256      24.596107      24.539110      24.469313      24.461149      24.531017      24.522135      24.452290      24.442890      24.512642      24.569811      24.579327      24.624796      24.615320      24.605270      24.559782      24.549379      24.594805      24.584045      24.573101      24.527901      24.538721      24.481911      24.471270      24.402294      24.412703      24.422993      24.492414      24.502695      24.433086      24.350023      24.252562      24.243027      24.340176      24.330156      24.320036      24.223557      24.233337      24.121305      24.111916      23.984196      23.993147      24.002014      24.130610      24.139772      24.010748      24.019285      24.027561      24.157398      24.148727      24.261869      24.359612      24.368845      24.270859      24.279428      24.377604      24.385750      24.287460      24.173508      24.042997      24.035494      24.165693      24.312607      24.406656      24.400217      24.308243      24.198704      24.070616      24.072153      24.201424      24.201839      24.071756      24.069731      24.200329      24.313509      24.410189      24.409786      24.314205      24.306751      24.404673      24.408348      24.310913      24.197210      24.066332      24.061781      24.192755      24.187195      24.056271      24.049963      24.180723      24.294807      24.393114      24.399500      24.301304      24.652639      24.647741      24.602921      24.608303      24.552000      24.546192      24.476585      24.482735      24.490503      24.487486      24.556210      24.558434      24.613234      24.611887      24.655550      24.655979      24.646864      24.653328      24.611805      24.606941      24.554945      24.558203      24.491385      24.489643      24.475819      24.484690      24.547966      24.536423      24.583548      24.597847      24.635691      24.618715      24.687178      24.685400      24.659401      24.663298      24.657946      24.643229      24.662680      24.679668      24.694633      24.675810      24.683813      24.704105      24.714832      24.716372      24.703930      24.703909      24.723423      24.727308      24.723856      24.721039      24.709127      24.687662      24.688156      24.710548      24.709066      24.685947      24.681570      24.705254      24.719532      24.725035      24.727491      24.722721      24.666437      24.669662      24.693932      24.692659      24.712063      24.711739      24.722284      24.723822      24.717781      24.722538      24.709318      24.702814      24.679049      24.687956      24.659296      24.647339      24.604376      24.629471      24.665010      24.644733      24.675055      24.691723      24.708763      24.694532      24.645576      24.673935      24.651630      24.620056      24.579958      24.616903      24.570456      24.525785      23.874739      23.639488      23.365076      23.676846      23.819212      23.816366      24.021816      23.996990      24.147228      24.183840      24.312323      24.272282      24.183578      24.042904      23.861233      24.040535      24.185228      24.299749      24.394575      24.301514      24.394413      24.468040      24.532064      24.471090      24.525600      24.578688      24.607761      24.558414      24.494984      24.458570      24.375069      24.414295      24.440781      24.457653      24.530539      24.517750      24.577873      24.624247      24.630640      24.587202      24.587673      24.627911      24.615999      24.579210      24.530674      24.534925      24.466858      24.467718      24.387062      24.284687      24.270414      24.380060      24.364874      24.343176      24.220333      24.247698      24.100582      24.066751      23.876049      23.916653      23.961874      23.993856      24.155649      24.132975      24.195766      24.176409      24.027996      24.065454      24.095566      24.112150      24.204031      24.206764      24.295403      24.277437      24.335567      24.365534      24.381716      24.299576      24.294416      24.387747      24.461023      24.446150      24.496128      24.517994      24.561693      24.594597      24.562851      24.534304      24.495323      24.519291      24.462172      24.442713      24.416187      24.463005      24.420490      24.381081      24.325039      24.250168      24.272383      24.353289      24.374458      24.389765      24.300549      24.288860      24.184500      24.193235      24.066795      24.060280      24.050591      24.171879      24.154650      24.037170      24.019377      23.996458      24.102844      24.131969      24.221090      24.288250      24.241167      24.183811      24.136742      24.181675      24.107233      24.077990      24.020462      23.931683      23.967556      24.066122      23.089968      22.795301      22.394642      22.814014      23.111898      23.229652      23.373119      23.297245      23.458523      23.497066      23.603354      23.596947      23.514458      23.376070      23.116228      23.321451      23.807072      23.760027      23.587574      23.674656      23.714487      23.693827      23.770275      23.813400      23.895960      23.834385      23.887714      23.964325      24.005312      24.014765      23.900547      23.916056      23.609699      23.842056      23.902782      23.700691      23.784569      23.956854      23.997971      23.856947      23.472252      23.683748      23.571239      23.307545      23.143332      23.450792      23.319769      22.958189      21.943924      22.507122      22.767429      22.311871      22.577625      22.981590      23.215721      22.907370      22.118237      22.541786      22.073624      21.436480      21.129473      21.767084      21.240023      20.360184      20.082201      15.701988      18.632853      20.928797      19.872574      20.929068      21.336922      21.852266      21.725935      22.345297      22.351885      22.002127      22.237402      21.920231      21.212500      23.042690      23.017982      22.634020      22.589037      22.796009      22.835152      23.226246      23.174772      23.490578      23.539886      23.791752      23.750292      23.687243      23.641315      23.356236      23.401079      22.595613      23.023964      23.448832      23.194168      23.381353      23.613098      23.552834      23.208216      22.094625      22.744329      23.133902      22.895081      22.663527      22.923904      22.047670      21.325384      18.939661      20.330357      22.465622      22.717426      21.138399      19.649782      16.034689      17.680113      14.661184      13.951006      15.922663      17.435070      16.368006      24.360266      24.293989      24.285490      24.351557      24.405725      24.448925      24.457977      24.414619      24.423824      24.467344      24.477009      24.433321      24.378578      24.369280      24.302784      24.311855      24.232206      24.223391      24.130138      24.138672      24.030294      23.906126      23.898228      24.022066      24.014082      23.890560      23.883137      24.006359      24.113855      24.121861      24.214842      24.206577      24.198614      24.190962      24.098722      24.106138      23.998909      23.875973      23.869083      23.991747      23.984884      23.862480      23.856174      23.978336      24.084841      24.091619      24.183636      24.176645      24.254721      24.320034      24.327391      24.261904      24.277300      24.269434      24.335106      24.343164      24.397158      24.388927      24.431828      24.440203      24.423811      24.381050      24.373539      24.416164      24.448805      24.472317      24.480167      24.456564      24.473198      24.464699      24.488398      24.496994      24.512405      24.503735      24.511475      24.520199      24.503119      24.495430      24.487507      24.495144      24.495943      24.503948      24.498592      24.490572      24.479654      24.463766      24.471767      24.487673      24.496067      24.480139      24.488865      24.504820      24.515755      24.521090      24.512337      24.506992      24.534302      24.539631      24.530193      24.524864      24.513914      24.497929      24.507307      24.523333      24.533051      24.516977      24.526917      24.543047      24.554081      24.544048      24.549381      24.559423      24.558441      24.550455      24.540474      24.548414      24.538687      24.529274      24.521431      24.530792      24.515230      24.505943      24.482046      24.491228      24.500729      24.524836      24.534740      24.510530      24.520611      24.544928      24.555370      24.530951      24.552294      24.541521      24.566042      24.576914      24.592892      24.581963      24.590054      24.601002      24.579288      24.571226      24.560715      24.568741      24.569733      24.580282      24.574892      24.564371      24.553293      24.537094      24.547476      24.563757      24.574402      24.558022      24.568689      24.585186      24.596483      24.601971      24.591042      24.585609      24.618507      24.624163      24.613028      24.607468      24.596060      24.579422      24.590155      24.606964      24.617826      24.600813      24.611303      24.628565      24.640482      24.629538      24.635315      24.646412      24.645700      24.637657      24.626415      24.634504      24.623280      24.612093      24.603975      24.615168      24.599098      24.587946      24.563234      24.574303      24.585451      24.610321      24.621555      24.596626      24.562059      24.550993      24.506094      24.517002      24.460567      24.391836      24.381388      24.449863      24.439215      24.370996      24.360704      24.428663      24.484463      24.529024      24.539965      24.495232      24.518217      24.473833      24.463375      24.507582      24.497150      24.486952      24.443094      24.453119      24.397964      24.388147      24.321190      24.330763      24.340557      24.408007      24.418249      24.350548      24.269787      24.175016      24.165640      24.260088      24.250576      24.241276      24.147448      24.156443      24.047413      24.038750      23.914238      23.922544      23.931025      24.056265      24.065285      23.939659      24.083723      23.957289      23.948421      24.074446      24.184544      24.279648      24.289640      24.194197      24.203941      24.299728      24.309877      24.213743      24.102495      24.093084      23.966228      23.975210      23.831003      23.822487      23.661022      23.669041      23.488573      23.288958      23.282017      23.481081      23.473589      23.275059      23.268110      23.466125      23.645063      23.805574      23.814001      23.653021      23.797239      23.637180      23.629395      23.789017      23.780931      23.773008      23.614206      23.621729      23.444166      23.437067      23.240925      23.247585      23.254351      23.451391      23.458719      23.261200      23.044113      22.807119      22.801271      23.037758      23.031466      23.025259      22.789728      22.795467      22.539471      22.534208      22.258837      22.263617      22.268417      22.544777      22.550104      22.273218      22.560730      22.282722      22.277994      22.555429      22.812986      23.050508      23.056921      22.818850      22.824682      23.063326      23.069695      22.830460      22.571148      22.565979      22.287374      22.291925      21.993286      21.676132      21.672831      21.989359      21.985308      21.981157      21.665812      21.669382      21.336378      21.333382      20.986040      20.988476      20.990744      21.339231      21.341911      20.992815      20.632137      20.630651      20.263916      20.264843      19.898537      19.544909      19.544962      19.898127      19.897453      19.544737      19.544260      19.896547      20.261366      20.262747      20.628948      20.627052      20.624992      20.622795      20.258070      20.259798      19.895437      19.543558      19.542660      19.894146      19.892702      19.541592      19.540375      19.891127      20.254232      20.256208      20.620481      20.618076      20.975117      20.977976      21.323772      21.320444      21.650814      21.964083      21.968374      21.654623      21.658407      21.972668      21.976936      21.662144      21.330265      20.983461      20.980764      21.327053      21.310392      20.966343      20.963419      21.307085      21.635754      21.947294      21.951397      21.639456      21.643213      21.955574      21.959808      21.647005      21.317091      21.313734      20.969280      20.972212      20.615601      20.613079      20.250034      20.252169      19.889442      19.539034      19.537588      19.887671      19.885834      19.536060      19.534470      19.883951      20.245649      20.247854      20.610531      20.607975      20.605433      20.602915      20.241230      20.243435      19.882042      19.532837      19.531179      19.880125      19.878218      19.529514      19.527859      19.876335      20.236914      20.239052      20.600443      20.598028      20.952183      21.294510      21.297523      20.954893      20.960526      20.957678      21.300634      21.303827      21.632122      21.628576      21.939379      21.943283      21.935596      21.625132      21.621803      21.931950      22.223577      22.227543      22.500120      22.495838      22.748291      22.980814      22.985718      22.752888      22.757679      22.990835      22.996155      22.762651      22.509199      22.235928      22.231665      22.504580      22.529007      22.254099      22.249420      22.523890      22.518869      22.244822      22.240318      22.513969      23.001661      22.767794      22.773087      23.007341      23.013178      22.778519      22.784073      23.019157      23.430111      23.234388      23.227995      23.423317      23.416702      23.221764      23.215708      23.410284      23.743277      23.585917      23.592686      23.750380      23.757713      23.599669      23.606848      23.765263      23.573078      23.729815      23.736416      23.579376      23.404076      23.209845      23.204189      23.398092      23.392347      23.198753      23.193550      23.386852      23.561258      23.567034      23.723484      23.717438      23.711685      23.706238      23.550552      23.555759      23.381620      23.188591      23.183887      23.376661      23.371984      23.179449      23.175287      23.367599      23.541044      23.696301      23.701107      23.545643      23.691830      23.536764      23.532808      23.687698      23.683918      23.680494      23.525906      23.529186      23.356287      23.353155      23.161560      23.164537      23.167822      23.359743      23.363516      23.171408      22.959902      22.728636      22.725439      22.956509      22.953398      22.950579      22.719849      22.722507      22.471716      22.469221      22.198807      22.201138      22.203703      22.474466      22.477463      22.206497      22.484161      22.212736      22.209511      22.480698      22.732088      22.963570      22.967505      22.735790      22.739731      22.971697      22.976137      22.743902      22.491743      22.487846      22.216162      22.219780      21.928452      21.618603      21.615543      21.925114      21.921947      21.918964      21.609892      21.612637      21.286169      21.283661      20.942371      20.944647      20.947048      21.288818      21.291603      20.949564      20.595684      20.593426      20.232815      20.234831      19.874491      19.526228      19.524635      19.872698      19.870972      19.523092      19.521614      19.869320      20.229034      20.230879      20.591263      20.589211      20.587275      20.585466      20.225660      20.227291      19.867756      19.520208      19.518885      19.866287      19.864925      19.517654      19.516525      19.863676      20.222767      20.224150      20.583796      20.582270      20.934717      20.936396      21.277103      21.275265      21.600735      21.909035      21.911200      21.602736      21.604933      21.913582      21.916172      21.607323      21.281309      20.940231      20.938236      21.279119      21.270897      20.930717      20.929749      21.269840      21.594841      21.902666      21.903904      21.595987      21.597357      21.905382      21.907093      21.598940      21.273615      21.272156      20.931871      20.933207      20.580894      20.579678      20.220417      20.221521      19.862547      19.515501      19.514593      19.861546      19.860678      19.513805      19.513140      19.859945      20.218655      20.219460      20.578625      20.577740      20.577026      20.576490      20.217516      20.218006      19.859356      19.512604      19.512201      19.858912      19.858614      19.511930      19.511795      19.858465      20.217024      20.217188      20.576130      20.575951      20.927790      21.267706      21.267921      20.927986      20.928968      20.928381      21.268349      21.268990      21.593920      21.593225      21.900921      21.901670      21.900421      21.592760      21.592527      21.900169      22.189281      22.18