<VTKFile type="UnstructuredGrid" version="1.0" byte_order="LittleEndian" header_type="UInt64">
  <UnstructuredGrid>
    <Piece NumberOfPoints="40574" NumberOfCells="18683">
      <CellData Scalars="Scalars_">
        <DataArray type="Float32" Name="Scalars_" format="ascii">
     6.407996      6.408273      6.361345      6.361067      6.275059      6.159711      6.159990      6.275338      6.275894      6.160548      6.161384      6.276727      6.362730      6.361899      6.408827      6.409657      6.410761      6.412138      6.365215      6.363836      6.277836      6.162494      6.163877      6.279217      6.280869      6.165528      6.167445      6.282789      6.368785      6.366866      6.413788      6.415707      6.417892      6.420339      6.373415      6.370970      6.284971      6.169620      6.172047      6.287412      6.290104      6.174720      6.177628      6.293041      6.379070      6.376118      6.423045      6.426004      6.429210      6.432655      6.385697      6.382266      6.296215      6.180761      6.184108      6.299615      6.303231      6.187654      6.191382      6.307049      6.393226      6.389354      6.436331      6.440228      6.444334      6.448636      6.401560      6.397299      6.311055      6.195275      6.199312      6.315231      6.319557      6.203467      6.207714      6.324011      6.410574      6.405992      6.453118      6.457761      6.462547      6.467450      6.420099      6.415285      6.328567      6.212022      6.216356      6.333196      6.337865      6.220677      6.224940      6.342537      6.429918      6.424987      6.472445      6.477501      6.482585      6.487659      6.439755      6.434855      6.347170      6.229096      6.233088      6.351717      6.356127      6.236856      6.240329      6.360341      6.449262      6.444575      6.492679      6.497597      6.502361      6.506911      6.458003      6.453759      6.364292      6.243430      6.246074      6.367910      6.371113      6.248166      6.249600      6.373814      6.465439      6.461922      6.511182      6.515100      6.369065      6.229877      6.220761      6.363291      6.466813      6.522333      6.524855      6.470409      6.472641      6.526131      6.526308      6.473666      6.375980      6.373233      6.237021      6.242415      6.246259      6.377473      6.377867      6.248738      6.250021      6.250261      6.375913      6.377304      6.470914      6.468468      6.518585      6.521550      6.523897      6.472673      6.473632      6.525521      6.195649      6.209437      6.355715      6.346123      6.454827      6.461680      6.518406      6.512906      6.496444      6.505650      6.446057      6.435157      6.319958      6.334286      6.179117      6.159543      6.109964      6.136607      6.302876      6.282762      6.406060      6.421904      6.485084      6.471349      6.435834      6.455013      6.387372      6.365576      6.232229      6.259317      6.079251      6.044078      5.911257      5.636048      5.548860      5.842136      6.044286      6.148535      6.200012      6.101594      6.153381      6.246493      6.288249      6.199956      6.030121      5.973789      5.715005      5.786245      5.850275      6.080642      6.125739      5.907595      5.958692      6.004036      6.201168      6.165791      6.311546      6.340397      6.413562      6.387938      6.358694      6.278727      6.241633      6.325556      5.347753      5.452929      5.766043      5.682605      5.911912      5.981155      6.091798      6.029553      5.887645      5.961571      5.836287      5.754035      5.492309      5.591470      5.232843      5.107738      4.825284      4.972012      5.384827      5.268771      5.568832      5.664942      5.807600      5.721295      5.529574      5.628635      5.465576      5.355098      5.010198      5.143940      4.667236      4.497622      -6.499170      -8.491982      -9.441719      -7.380510      -5.543211      -3.888475      -3.159123      -4.735219      -3.980478      -2.482445      -1.855757      -3.276841      -4.887754      -5.668630      -7.587312      -6.728045      -8.840408      -9.780935      -12.289735      -11.263048      -14.020591      -17.117096      -18.338587      -15.140230      -16.278772      -19.568033      -20.798079      -17.430590      -14.427246      -13.345783      -10.759919      -11.775245      -12.824365      -13.904325      -16.648588      -15.529761      -18.589775      -22.021090      -23.229370      -19.750242      -20.905848      -24.415495      -25.572891      -22.050489      -18.914410      -17.778629      -15.011791      -16.143085      -13.672494      -11.427989      -10.337038      -12.552737      -11.473299      -10.435837      -8.313552      -9.298936      -7.326795      -6.406459      -4.673117      -5.515546      -6.418084      -8.305831      -9.344935      -7.382811      -5.524946      -3.771001      -3.002135      -4.652332      -3.840004      -3.085544      -1.628240      -2.288694      -0.860274      -0.295440      0.912219      0.440280      -0.070799      -1.471544      -2.131447      -0.622817      0.737442      1.188131      2.295276      1.935283      2.962339      3.815972      4.034924      3.244742      3.506981      4.238587      4.427373      3.749706      2.937641      1.991138      1.605576      2.629073      3.483479      2.672606      2.346296      3.222057      3.973665      4.601780      4.762374      4.179681      4.368635      4.909774      5.044633      4.541439      3.942212      3.723118      2.971669      3.245108      2.447750      1.546756      1.143950      2.112668      1.346932      1.746406      0.704264      0.225275      -1.018184      -0.455847      -1.739626      -2.386333      -1.142605      0.061490      0.536546      -0.592432      -0.086287      0.972006      1.370496      0.378603      0.804938      1.195328      2.066647      1.734560      2.557506      2.836064      3.515873      3.285845      3.032393      2.251234      1.915072      2.753667      3.494542      3.721568      4.323760      4.142012      4.699026      5.167631      5.279458      4.842332      4.972289      5.380805      5.472362      5.089809      4.637956      4.114579      3.927744      4.488678      4.894151      4.435965      4.283525      4.772746      5.195781      5.554801      5.628778      5.291064      5.376481      5.694929      5.753860      5.452816      5.100964      5.003224      4.573214      4.696515      4.235833      3.713192      3.525738      4.082678      3.724247      3.912651      3.318258      3.088989      2.369099      2.644144      1.878182      1.552278      2.175316      2.893889      3.120323      2.445834      1.674617      0.787463      0.410204      1.354194      0.621602      1.003930      0.000036      -0.445205      -1.675857      -1.159780      -2.505704      -3.102411      -1.948965      -0.681421      -0.238850      -1.430696      -2.815644      -3.422020      -5.127780      -4.419201      -6.260282      -8.345875      -9.302568      -7.085902      -7.956671      -10.305869      -11.353321      -8.871402      -6.674543      -5.879580      -4.069355      -4.758492      -5.490011      -6.264200      -8.391560      -7.512186      -9.828317      -12.441749      -13.567261      -10.825020      -11.858490      -14.725266      -15.910505      -12.925089      -10.269211      -9.311221      -7.081009      -7.940019      -5.914180      -5.145401      -3.469437      -4.155196      -2.622064      -1.276355      -0.741541      -2.013845      -1.449849      -0.248661      0.204881      -0.927740      -2.231571      -3.740468      -4.421112      -2.828817      1.770514      0.963219      0.640929      1.503447      2.250425      2.899402      3.081439      2.471252      2.672055      3.246198      3.395066      2.854333      2.236833      2.014446      1.258805      1.529346      0.718164      0.390015      -0.606326      -0.209801      -1.265573      -2.456424      -3.025345      -1.742227      -2.258211      -3.639684      -4.301046      -2.815221      -1.502727      -1.036727      0.032738      -0.355369      -0.775995      -1.230790      -2.547960      -2.005963      -3.414783      -5.010754      -5.769784      -4.058207      -4.746526      -6.578693      -7.437551      -5.480446      -3.753521      -3.130087      -1.721345      -2.249166      -0.949309      0.169856      0.546594      -0.503155      -0.090542      0.290246      1.211592      0.893232      1.742278      2.007991      2.698605      2.477466      2.234300      1.451530      1.133901      1.967316      2.691770      3.325313      3.510606      2.915033      3.117416      3.300597      3.828514      3.677833      4.171348      4.294126      4.706542      4.607694      4.497068      4.034507      3.882267      4.373524      4.807035      4.905869      5.266159      5.188313      5.520816      5.806153      5.852359      5.581183      5.634578      5.892999      5.928562      5.681621      5.396596      5.072490      4.994037      5.335329      5.498254      5.203710      5.142109      5.450683      5.722888      5.959507      5.986264      5.758916      5.790205      6.009232      6.028780      5.817216      5.576272      5.539927      5.258045      5.305808      5.004131      4.667990      4.589994      4.942599      4.794671      4.873056      4.502348      4.404078      3.964061      4.085782      3.615502      3.466139      3.750041      4.194887      4.292497      3.871015      3.979591      4.379643      4.457278      4.076849      4.163790      4.241335      4.587445      4.526277      4.852678      4.900331      5.184483      5.147976      5.106149      4.798542      4.737232      5.058414      5.347637      5.384116      5.635030      5.607812      5.840374      6.045254      6.058969      5.860070      5.876664      6.070216      6.079265      5.890486      5.678226      5.443125      5.415781      5.658366      5.708961      5.486596      5.466593      5.694978      5.901839      6.086361      6.091728      5.910999      5.918216      6.095573      6.098083      5.923720      5.729818      5.720481      5.503506      5.517662      5.287371      5.038020      5.010474      5.267224      5.216208      5.243639      4.978674      4.942137      4.641522      4.689187      4.371583      4.310338      4.425793      4.731061      4.767715      4.473633      4.152082      3.798566      3.720215      4.090521      3.943409      4.021221      3.632482      3.534475      3.076335      3.198906      2.713438      2.561117      2.850836      3.309091      3.407919      2.974502      2.492493      2.338933      1.767083      1.956257      1.360804      0.702280      0.422663      1.129738      0.874709      0.114476      -0.224424      0.593863      1.327215      1.557936      2.168791      1.980688      1.773180      1.544761      0.794351      1.073258      0.285290      -0.596223      -1.003134      -0.052964      -0.422875      -1.447366      -1.931094      -0.826425      0.154619      0.488735      1.293868      1.018887      1.776458      2.001708      2.622983      2.439195      3.019499      3.529339      3.650224      3.168884      3.303738      3.758847      3.856251      3.425236      2.940280      2.392616      2.206610      2.789575      -22.896320      -24.063070      -25.861448      -24.659218      -23.374344      -22.012440      -20.338587      -21.653015      -20.009556      -18.743567      -17.229536      -18.446228      -19.604353      -21.210615      -22.341434      -20.698704      -19.136679      -18.079391      -16.637148      -17.656780      -16.259998      -14.946820      -14.003877      -15.278532      -14.252580      -13.022501      -12.007309      -13.186967      -14.450488      -15.566721      -16.964846      -15.798152      -14.585339      -13.333231      -12.105761      -13.294519      -12.087690      -10.964115      -9.899606      -10.961640      -9.816616      -8.821266      -7.737420      -8.661474      -9.663013      -10.892172      -12.049752      -10.744389      -11.907300      -13.152728      -14.614649      -13.290461      -14.644572      -15.960149      -17.418238      -16.039557      -17.517244      -18.958244      -20.578236      -19.076056      -17.511143      -15.891264      -14.480894      -16.021914      -11.313985      -12.906240      -14.228113      -12.538150      -10.842585      -9.166351      -8.158707      -9.723948      -8.681792      -7.223008      -6.357303      -7.714683      -9.103879      -10.169496      -11.665898      -10.506962      -9.428549      -8.115614      -7.202539      -8.429055      -7.506226      -6.657250      -5.590687      -6.361947      -5.240443      -4.548104      -3.539833      -4.153667      -4.825644      -5.996815      -6.820555      -5.559135      -4.346809      -3.197520      -2.638599      -3.702302      -3.112974      -2.575565      -1.663721      -2.128349      -1.207720      -0.810911      -0.021553      -0.356492      -0.725209      -1.644038      -2.122629      -1.130155      -1.573810      -2.058650      -3.217630      -2.646254      -3.808109      -5.049644      -5.813758      -4.473259      -5.195683      -6.641825      -7.536139      -5.977839      -4.513952      -3.161539      -2.587110      -3.839376      -13.237501      -15.724020      -17.158459      -14.526893      -11.994755      -9.617422      -8.621395      -10.853413      -9.769585      -7.679405      -6.792167      -8.744855      -10.841533      -13.043730      -14.351418      -12.008244      -8.701585      -10.631883      -11.803337      -9.739019      -7.780063      -5.959757      -5.181680      -6.875347      -6.030208      -4.456945      -3.784147      -5.243587      -6.821843      -8.498527      -9.530240      -7.729373      -17.113197      -15.630882      -13.842038      -15.224936      -13.311495      -12.038440      -10.247293      -11.402200      -13.932854      -12.630999      -14.660969      -16.085340      -18.221352      -16.685404      -18.673075      -20.307980      -23.790573      -22.014931      -19.830122      -21.508598      -19.149395      -17.582415      -15.306172      -16.748653      -19.828785      -18.257357      -20.782991      -22.479492      -25.060308      -23.253275      -25.631218      -27.532820      -32.024242      -33.899174      -36.031822      -34.117355      -32.066959      -29.872168      -27.892189      -30.023821      -28.035866      -25.970787      -24.112391      -26.108147      -27.996603      -29.778532      -31.812401      -29.982021      -24.215525      -25.891823      -27.803377      -26.072994      -24.245054      -22.320959      -20.600084      -22.450487      -20.727953      -18.953007      -17.382595      -19.080587      -20.713846      -22.275793      -24.048071      -22.428009      -29.677763      -27.734024      -26.496660      -28.405556      -27.039509      -25.170872      -23.762527      -25.585848      -29.437891      -27.478956      -28.976664      -30.978102      -32.422260      -30.382236      -31.688982      -33.763100      -38.075211      -35.894310      -34.520130      -36.668964      -35.152248      -33.038719      -31.458008      -33.533749      -37.823486      -35.658344      -37.310894      -39.504940      -41.082504      -38.860062      -40.296379      -42.545944      -56.006348      -57.510529      -59.253933      -57.751938      -56.289330      -54.880592      -52.953838      -54.483517      -52.538784      -50.924702      -48.815544      -50.485485      -52.085663      -54.107555      -55.619648      -53.604496      -51.490444      -49.969791      -47.787537      -49.303436      -47.068623      -44.809246      -43.322750      -45.564297      -43.948330      -41.722336      -40.018929      -42.232178      -44.448204      -46.165203      -48.352169      -46.649361      -44.819221      -42.831284      -40.622810      -42.609436      -40.398552      -38.201778      -36.254230      -38.426224      -36.293892      -34.159355      -31.905684      -33.986870      -36.108757      -38.461975      -40.653172      -38.262981      -40.439480      -42.626209      -45.052174      -42.854893      -45.036514      -47.010086      -49.161644      -47.220913      -49.364552      -51.251163      -53.253876      -51.445644      -49.361038      -46.971245      -44.808949      -47.227539      -39.039127      -42.079346      -44.233788      -41.143738      -37.742317      -34.099594      -32.202984      -35.725632      -33.725651      -30.325527      -28.474556      -31.750679      -34.868629      -36.943958      -39.922176      -37.775352      -35.650066      -32.822029      -30.811758      -33.555790      -31.500498      -29.490921      -26.925524      -28.844357      -26.044615      -24.234835      -21.458979      -23.143570      -24.877829      -27.904072      -29.808006      -26.656660      -23.433018      -20.212742      -18.720942      -21.793240      -20.197540      -18.651045      -15.873263      -17.272770      -14.439786      -13.191254      -10.666072      -11.765194      -12.911877      -15.736480      -17.076750      -14.102444      -15.332469      -16.596796      -19.866377      -18.455345      -21.742620      -25.111349      -26.822311      -23.304544      -24.892010      -28.559538      -30.316189      -26.498018      -22.759136      -19.204250      -17.889568      -21.303347      -37.548031      -42.493458      -44.134182      -38.976673      -33.932514      -29.483242      -28.319748      -32.701790      -31.390047      -27.096931      -25.828558      -30.018080      -34.521427      -39.116158      -40.821468      -36.058685      -31.349081      -35.626331      -37.381973      -32.947941      -28.602636      -24.527163      -23.204124      -27.157705      -25.695297      -21.869797      -20.533627      -24.225964      -28.115044      -32.084896      -33.857742      -29.734976      -48.472965      -46.370548      -43.245731      -45.331284      -41.786858      -39.766262      -36.007137      -37.916332      -41.695866      -39.816612      -43.792419      -45.770580      -49.388885      -47.384789      -50.523106      -52.502457      -56.177876      -54.392899      -51.324402      -53.169952      -49.597153      -47.709042      -43.539902      -45.331482      -48.658253      -47.048233      -51.428783      -53.207870      -56.484783      -54.900635      -57.843674      -59.380417      -62.879684      -66.807419      -64.197769      -61.548351      -61.277832      -59.908604      -60.921230      -59.879059      -58.417751      -56.788757      -58.550323      -60.185390      -60.868763      -61.517574      -61.547390      -57.089672      -58.460018      -59.809227      -58.708508      -57.002289      -55.025734      -53.142788      -55.278358      -53.411587      -51.158791      -49.094585      -51.430454      -53.441406      -55.143127      -56.889797      -55.329395      -62.228130      -60.830715      -59.313335      -60.657948      -59.352310      -57.923981      -56.685638      -58.356388      -61.319511      -59.893074      -60.533337      -61.414158      -62.544392      -61.749565      -63.443520      -64.490891      -66.337456      -65.413513      -62.984180      -61.918060      -62.703175      -64.193916      -66.794159      -65.784760      -68.180672      -68.346405      -68.116631      -67.058723      -67.517044      -0.128999      0.349578      0.522040      0.068534      -0.402228      -0.888688      -1.139877      -0.626097      -0.877274      -1.421393      -1.736260      -1.158530      -0.599567      -0.350864      0.155669      -0.061924      0.452215      0.640487      1.102169      0.941134      1.403667      1.839251      1.952882      1.539773      1.660666      2.053675      2.142879      1.767819      1.372460      1.245373      0.808094      0.957003      1.089031      1.205848      1.584462      1.485007      1.862585      2.221648      2.291036      1.946209      2.019829      2.352011      2.405456      2.084485      1.749293      1.672154      1.308983      1.399833      1.036285      0.659044      0.537427      0.930573      0.675118      0.810715      0.399696      0.244052      -0.203095      -0.026322      -0.466233      -0.665009      -0.289953      0.130277      0.268706      -0.133960      -0.548041      -0.972513      -1.165201      -0.722180      -1.140184      -0.918758      -1.382487      -1.626972      -2.123640      -1.855928      -2.337563      -2.628425      -2.078482      -1.617737      -1.406283      -1.848234      -2.297286      -2.546172      -3.019665      -2.752471      -3.213035      -3.678555      -3.980800      -3.498055      -3.817678      -4.319326      -4.697542      -4.175234      -3.655646      -3.139615      -2.825916      -3.319649      -4.449660      -3.882374      -3.490589      -4.031101      -4.574263      -5.119056      -5.587650      -5.018495      -5.511827      -6.107250      -6.681873      -6.058275      -5.431567      -4.915155      -4.318701      -4.803478      -4.176391      -3.553090      -3.135056      -3.724526      -3.318407      -2.954242      -2.423877      -2.759867      -2.209038      -1.901476      -1.389077      -1.668267      -1.980802      -2.552916      -2.936576      -2.329940      -2.719142      -3.363683      -3.838075      -3.152061      -4.164454      -3.632514      -4.363734      -4.944737      -5.732267      -5.103268      -5.846575      -6.521924      -5.233303      -4.533160      -4.017797      -4.677957      -5.340744      -5.934628      -6.633531      -6.002981      -6.661932      -7.315578      -8.012383      -7.326896      -8.057194      -8.776199      -9.610723      -8.856694      -8.088380      -7.308806      -6.589281      -7.327330      -9.827133      -8.958065      -8.097162      -8.920484      -9.729005      -10.519345      -11.505057      -10.677374      -11.704588      -12.570354      -13.717169      -12.812882      -11.875877      -10.811410      -9.894880      -10.910514      -9.922330      -8.917695      -8.013317      -8.960195      -8.074970      -7.263422      -6.424287      -7.183359      -6.289236      -5.585207      -4.751923      -5.398992      -6.109697      -7.060800      -7.903663      -6.887945      -5.878874      -5.167503      -4.242028      -4.885283      -3.916240      -2.980650      -2.472573      -3.341167      -2.819149      -2.012070      -1.595669      -2.346465      -3.126574      -3.930372      -4.519320      -3.657087      -3.396663      -2.646623      -2.213441      -2.914223      -2.479159      -2.087707      -1.472834      -1.823353      -1.188456      -0.877803      -0.305612      -0.577982      -0.881798      -1.534594      -1.919461      -1.219994      -0.552503      0.079477      0.331804      -0.258678      0.005001      0.241149      0.760416      0.558020      1.079319      1.250755      1.711425      1.567941      1.407224      0.887510      0.673349      1.227584      0.169410      0.804203      1.027216      0.434729      -0.201394      -0.879241      -1.241810      -0.513386      -0.859203      -1.643262      -2.086763      -1.241673      -0.450882      -0.124968      0.556512      0.282006      0.955406      1.184046      1.758124      1.569695      2.126986      2.630780      2.755035      2.280729      2.418867      2.866426      2.966052      2.542705      2.080036      1.575446      1.390117      1.927722      1.741759      2.216524      2.338559      1.890687      2.023756      2.142396      2.544318      2.447424      2.840299      2.918438      3.266480      3.204292      3.134057      2.752309      2.653469      3.054942      3.423823      3.763292      3.812098      3.486376      3.541705      3.590500      3.892736      3.855054      4.146904      4.175460      4.440845      4.419712      4.395195      4.114111      4.076604      4.366898      3.985325      4.297184      4.334384      4.033864      3.708014      3.353298      3.273998      3.645591      3.575299      3.185061      3.085558      3.496354      3.868364      3.930379      4.254780      4.206615      4.515716      4.799670      4.827404      4.552603      4.584809      4.612807      4.871914      4.851353      5.099367      5.113945      5.340506      5.330725      5.318799      5.082081      5.061755      5.304450      5.529373      5.538918      5.742939      5.737227      5.927720      6.099429      6.099764      5.930404      5.931944      6.099230      6.097954      5.932497      5.750089      5.747163      5.546554      5.552509      5.556993      5.560196      5.752715      5.751887      5.932200      6.096051      6.093625      5.931182      5.929558      6.090768      6.087566      5.927429      5.752001      5.752710      5.562287      5.563423      5.362899      5.359394      5.144339      5.150864      4.927103      4.690845      4.675702      4.916759      4.904301      4.657874      4.637030      4.889453      5.126119      5.348395      5.354621      5.136167      5.162527      5.367438      5.367424      5.164345      4.952013      4.730221      4.723053      4.947841      4.942427      4.714256      4.703604      4.935583      5.155948      5.159779      5.366775      5.365308      5.563741      5.563368      5.748909      5.750700      5.924889      6.084094      6.080419      5.922020      5.918898      6.076601      6.072695      5.915588      5.744221      5.746722      5.562417      5.560991      5.559180      5.557067      5.738562      5.741478      5.912152      6.068750      6.064808      5.908641      5.905104      6.060907      6.057081      5.901583      5.732439      5.735531      5.554728      5.552226      5.362685      5.164905      5.165545      5.364388      5.366844      5.365801      5.165734      5.165372      4.955115      4.957298      4.740488      4.735970      4.743946      4.958704      4.959457      4.746499      4.525859      4.521012      4.289374      4.297107      4.059616      3.812617      3.796904      4.048297      4.034898      3.778535      3.757160      4.019133      4.268854      4.507471      4.514946      4.280034      4.200219      4.458958      4.474386      4.221584      4.239925      4.487433      4.498376      4.255579      3.732397      4.000687      3.979218      3.703828      3.670995      3.954350      3.925672      3.633400      2.987655      3.321391      3.369737      3.048809      3.102694      3.412177      3.449314      3.150041      2.497838      2.833263      2.773909      2.424558      2.341609      2.706567      2.630354      2.247935      2.931174      2.619186      2.562418      2.885437      3.191521      3.481704      3.509855      3.227753      3.259298      3.534233      3.555261      3.286671      3.005996      2.971154      2.668956      2.712471      2.750407      2.783376      3.062474      3.036266      3.310339      3.573326      3.588777      3.330729      3.348222      3.601932      3.613075      3.363168      3.104514      2.836582      2.811935      3.085084      2.857768      3.121140      3.135298      2.875894      2.891317      2.904354      3.157367      3.147285      3.395665      3.403213      3.642283      3.636876      3.630331      3.386626      3.375876      3.622465      3.861421      4.093249      4.096733      3.866881      3.871349      3.874972      4.101657      4.099495      4.321681      4.322666      4.538244      4.538192      4.537899      4.320295      4.318410      4.537285      4.312685      4.534727      4.536262      4.315916      4.088909      3.854802      3.846834      4.083557      4.077022      3.837308      3.825989      4.069112      4.303446      4.308581      4.532568      4.529659      4.748287      4.959671      4.959449      4.749435      4.750060      4.750261      4.958052      4.958882      5.161157      5.159545      5.354350      5.356543      5.358700      5.162633      5.163907      5.360767      5.549621      5.546968      5.726253      5.729332      5.898115      6.053361      6.049772      5.894734      5.891469      6.046338      6.043078      5.888348      5.720322      5.723238      5.544312      5.541695      5.539155      5.536724      5.714897      5.717533      5.885391      6.040012      6.037156      5.882619      5.880050      6.034521      6.032120      5.877699      5.710172      5.712437      5.534431      5.532302      5.346063      5.347988      5.154449      5.152818      4.953461      4.748520      4.749192      4.954683      4.955892      4.749750      4.750131      4.957034      5.157856      5.352165      5.350033      5.156142      5.148628      5.341270      5.340068      5.147553      4.949229      4.745699      4.746341      4.950122      4.951144      4.747050      4.747790      4.952268      5.151285      5.149879      5.342682      5.344286      5.530358      5.528619      5.706293      5.708119      5.875580      6.029963      6.028058      5.873703      5.872077      6.026413      6.025034      5.870710      5.703368      5.704706      5.527099      5.525813      5.524772      5.523983      5.701472      5.702288      5.869610      6.023925      6.023090      5.868780      5.868225      6.022532      6.022253      5.867947      5.700652      5.700926      5.523454      5.523189      5.337595      5.145315      5.145544      5.337847      5.339090      5.338346      5.145999      5.146672      4.948487      4.947916      4.744722      4.745152      4.744427      4.947528      4.947331      4.744276      4.536511      4.536601      4.324204      4.324196      4.107335      3.885819      3.885595      4.107240      4.107039      3.885133      3.884408      4.106712      4.324203      4.537011      4.536772      4.324213      4.323336      4.538125      4.537894      4.323766      4.324019      4.537604      4.537298      4.324150      3.883380      4.106225      4.105538      3.881997      3.880192      4.104593      4.103326      3.877882      3.409463      3.646709      3.650293      3.414581      3.418711      3.653153      3.655389      3.421973      2.937639      3.182828      3.178348      2.931734      2.924339      3.172712 