<VTKFile type="UnstructuredGrid" version="1.0" byte_order="LittleEndian" header_type="UInt64">
  <UnstructuredGrid>
    <Piece NumberOfPoints="40574" NumberOfCells="18683">
      <CellData Scalars="Scalars_">
        <DataArray type="Float32" Name="Scalars_" format="ascii">
     -45.203884      -45.219795      -45.432911      -45.416496      -45.842865      -46.485439      -46.504433      -45.860298      -45.895245      -46.542500      -46.599804      -45.947865      -45.515362      -45.465816      -45.251690      -45.299721      -45.364105      -45.445141      -45.665367      -45.581779      -46.018391      -46.676601      -46.773220      -46.107140      -46.214508      -46.890072      -47.027657      -46.340973      -45.885666      -45.766510      -45.543201      -45.658741      -45.792278      -45.944420      -46.180233      -46.023369      -46.487083      -47.186546      -47.367405      -46.653477      -46.840870      -47.570957      -47.798023      -47.050049      -46.554310      -46.356956      -46.115852      -46.307327      -46.519695      -46.753876      -47.014393      -46.773144      -47.281891      -48.049484      -48.326286      -47.537334      -47.817398      -48.629444      -48.960022      -48.123165      -47.568237      -47.279064      -47.010868      -47.291744      -47.597668      -47.929855      -48.224777      -47.883068      -48.455788      -49.319130      -49.707912      -48.816456      -49.206417      -50.127518      -50.579098      -49.626942      -48.993988      -48.594643      -48.289600      -48.678246      -49.097187      -49.547840      -49.886574      -49.424171      -50.079304      -51.063770      -51.582596      -50.564770      -51.084568      -52.136543      -52.726448      -51.639847      -50.913437      -50.382549      -50.031635      -50.549976      -51.104221      -51.695633      -52.084831      -51.480484      -52.231632      -53.352959      -54.016502      -52.860794      -53.527985      -54.717220      -55.454906      -54.233566      -53.409058      -52.727444      -52.325325      -52.994217      -53.702946      -54.451820      -54.890682      -54.130116      -54.977570      -56.228958      -57.038315      -55.759605      -56.578800      -57.881409      -58.756130      -57.433754      -56.528358      -55.690395      -55.240715      -56.069008      -64.173935      -65.473801      -66.463860      -65.192726      -64.292770      -63.826553      -62.783470      -63.257198      -62.230019      -61.751297      -60.735752      -61.216919      -62.152992      -63.158833      -64.481209      -63.491356      -62.509449      -61.161743      -60.190029      -61.540493      -60.589184      -59.659801      -58.322468      -59.242313      -58.312458      -57.403084      -56.935497      -57.838322      -58.774944      -59.253666      -60.223209      -59.742081      -68.415810      -67.446198      -66.209526      -67.218719      -66.365303      -65.330803      -64.874519      -65.921204      -67.986427      -66.960472      -67.390381      -68.400406      -69.193008      -68.214897      -69.368034      -70.298622      -72.080421      -71.203819      -70.148460      -71.077202      -70.355064      -69.390190      -68.993553      -69.976837      -71.855080      -70.931915      -71.290970      -72.194542      -72.841492      -71.975815      -72.925797      -73.737892      -77.868942      -78.424286      -78.953621      -78.438560      -78.066994      -77.872032      -77.257584      -77.468040      -76.831375      -76.604530      -75.911995      -76.156097      -76.620819      -77.263359      -77.861404      -77.263924      -76.631004      -75.940620      -75.222351      -75.962044      -75.256752      -74.515198      -73.672073      -74.466019      -73.894585      -73.063080      -72.743355      -73.594460      -74.406815      -74.687683      -75.441605      -75.179459      -79.916473      -79.450592      -78.973389      -79.474731      -79.156570      -78.629395      -78.448990      -78.989792      -79.968933      -79.495926      -79.649971      -80.111130      -80.382706      -79.944023      -80.352608      -80.760368      -81.496208      -81.141121      -80.792274      -81.174202      -80.942970      -80.541611      -80.410423      -80.822014      -81.561821      -81.205292      -81.316765      -81.664490      -81.860893      -81.529945      -81.826958      -82.134628      -84.958054      -85.102936      -85.118866      -84.995171      -84.827690      -84.611595      -84.526222      -84.767540      -84.696220      -84.429398      -84.321182      -84.614044      -84.850761      -84.909729      -85.075439      -85.037239      -85.179237      -85.198540      -85.283188      -85.281738      -85.348801      -85.383858      -85.349121      -85.332481      -85.302864      -85.298965      -85.230743      -85.257942      -85.248978      -85.272774      -85.206779      -85.202766      -85.185020      -85.151627      -85.153419      -85.209946      -85.195320      -85.141235      -85.026512      -85.112099      -85.004898      -84.881775      -84.701118      -84.869835      -84.976669      -85.076714      -85.100243      -85.027924      -85.037849      -85.010880      -85.029732      -85.083748      -85.110992      -85.122055      -85.020264      -85.032257      -84.912468      -84.876221      -84.685356      -84.747200      -84.796661      -84.935539      -84.944244      -84.833099      -84.673553      -84.464127      -84.371407      -84.609230      -84.532486      -84.443558      -84.148438      -84.266190      -83.948830      -83.800301      -83.402962      -83.584282      -83.751038      -84.084007      -84.206085      -83.903656      -83.564537      -83.380272      -82.983818      -83.200424      -82.827156      -82.464432      -82.184746      -82.578354      -82.310432      -81.883942      -81.560898      -82.022453      -82.498215      -82.964554      -83.180481      -82.750015      -81.937317      -82.481621      -82.731834      -82.227608      -81.713417      -81.214462      -80.843437      -81.382301      -81.028038      -80.446594      -80.022697      -80.649529      -81.294098      -81.626457      -82.213181      -81.925743      -82.521393      -83.065392      -83.271080      -82.766380      -83.206566      -82.994568      -83.461823      -83.638092      -84.018028      -83.874771      -84.229568      -84.342575      -84.104462      -83.718391      -83.548584      -83.967094      -83.817261      -83.364967      -83.167137      -83.654678      -83.479027      -83.289925      -82.726997      -82.954643      -82.353363      -82.082436      -81.359901      -81.678932      -81.978371      -82.607094      -82.844246      -82.258949      -81.618507      -81.290634      -80.561012      -80.939270      -80.245682      -79.570511      -79.088814      -79.815376      -79.357536      -78.576454      -78.032372      -78.871101      -79.730263      -80.569588      -80.941284      -80.158333      -78.794182      -79.755661      -80.174667      -79.275848      -78.355110      -77.455605      -76.845398      -77.808670      -77.231049      -76.201195      -75.522713      -76.621689      -77.745895      -78.284439      -79.311745      -78.842125      -79.872536      -80.813744      -81.160011      -80.277603      -81.020515      -80.660011      -81.486427      -81.793678      -82.483673      -82.224136      -82.869736      -83.086975      -82.637741      -81.947815      -81.654106      -82.390488      -83.025391      -83.564819      -83.735687      -83.231865      -83.604904      -83.424904      -83.894669      -84.042084      -84.405235      -84.286156      -84.607643      -84.702202      -84.503845      -84.156776      -84.016846      -84.390648      -84.695808      -84.786026      -85.012344      -84.941811      -85.137581      -85.291229      -85.330338      -85.191246      -85.237808      -85.362671      -85.387878      -85.277092      -85.130394      -85.075218      -84.867821      -84.941246      -85.006302      -85.062897      -85.217003      -85.177742      -85.308807      -85.405502      -85.414886      -85.332527      -85.347664      -85.415184      -85.405296      -85.353432      -85.269630      -85.247810      -85.110832      -85.149780      -84.988991      -84.931129      -84.702324      -84.781548      -84.521156      -84.201515      -84.070282      -84.417603      -84.303337      -83.927277      -83.772247      -84.178230      -84.514206      -84.787628      -84.863953      -84.613205      -82.938751      -83.500626      -83.675468      -83.148506      -82.519409      -81.776047      -81.479500      -82.269325      -82.004616      -81.166283      -80.835922      -81.724861      -82.480301      -82.716133      -83.314461      -83.116676      -83.648193      -83.813087      -84.224922      -84.088356      -84.449821      -84.744278      -84.835899      -84.562111      -84.666519      -84.920631      -84.998634      -84.763260      -84.471329      -84.352501      -83.967758      -84.112465      -84.247490      -84.373100      -84.683655      -84.581642      -84.852509      -85.070030      -85.134949      -84.934441      -85.009201      -85.193451      -85.245560      -85.076897      -84.863586      -84.777580      -84.489532      -84.597038      -84.267845      -83.866096      -83.704216      -84.135208      -83.992455      -83.839310      -83.345772      -83.530891      -82.977348      -82.755280      -82.056396      -82.321030      -82.570427      -83.186028      -83.381721      -82.805061      -82.127487      -81.342415      -81.012123      -81.848183      -81.552055      -81.238548      -80.293282      -80.662621      -79.648933      -79.216476      -78.011597      -78.514191      -78.991493      -80.058876      -80.446922      -79.444069      -78.346092      -77.823006      -76.580200      -77.177956      -75.980247      -74.809982      -74.063408      -75.306656      -74.601135      -73.283829      -72.472511      -73.864265      -75.294601      -76.693863      -77.272385      -75.952408      -73.890511      -75.452721      -76.087296      -74.607094      -73.097008      -71.631226      -70.762245      -72.300758      -71.477318      -69.868370      -68.952858      -70.628960      -72.374336      -73.145805      -74.790466      -74.101105      -75.741653      -77.251297      -77.778687      -76.348343      -77.483269      -76.928894      -78.281807      -78.760933      -79.903526      -79.492798      -80.557205      -80.907112      -80.188316      -79.060585      -78.606438      -79.799957      -79.391678      -78.130005      -77.631027      -78.963089      -78.513893      -78.043884      -76.565117      -77.109383      -75.523041      -74.899055      -73.062836      -73.768745      -74.451195      -76.123344      -76.699509      -75.109093      -73.385529      -72.644974      -70.758369      -71.577812      -69.758392      -68.019455      -67.072296      -68.868759      -67.963570      -66.115837      -65.154785      -67.046707      -69.061142      -71.095543      -71.881004      -69.918510      -67.307137      -69.469627      -70.290878      -68.189507      -66.122307      -64.193947      -63.238159      -65.194687      -64.268280      -62.292141      -61.360405      -63.347515      -65.525589      -66.417839      -68.634750      -67.789467      -70.037537      -72.184456      -72.893394      -70.820015      -72.334877      -71.586586      -73.583122      -74.252090      -75.998421      -75.409729      -77.041214      -77.552971      -76.508820      -74.799660      -74.169113      -75.956200      -77.532875      -78.902763      -79.314728      -78.011871      -78.912849      -78.471901      -79.709480      -80.087059      -81.091141      -80.769249      -81.669746      -81.943161      -81.382950      -80.432152      -80.079742      -81.082672      -81.931824      -82.186806      -82.862473      -82.646744      -83.245331      -83.743629      -83.896004      -83.427078      -83.599701      -84.040390      -84.176834      -83.763260      -83.262825      -83.067802      -82.429947      -82.661346      -82.881142      -83.089508      -83.622421      -83.447647      -83.917877      -84.305443      -84.426346      -84.063667      -84.200798      -84.539673      -84.645592      -84.329453      -83.942566      -83.787331      -83.286652      -83.472801      -82.906967      -82.685028      -81.967606      -82.230904      -81.429657      -80.487976      -80.122032      -81.118614      -80.791382      -79.737724      -79.334740      -80.447624      -81.398003      -82.203377      -82.450584      -81.690071      -85.859673      -85.864395      -85.857384      -85.855133      -85.849777      -85.840599      -85.840317      -85.851898      -85.851509      -85.837639      -85.832893      -85.848984      -85.861076      -85.861511      -85.868416      -85.869965      -85.869453      -85.858719      -85.854713      -85.867210      -85.863503      -85.858536      -85.842636      -85.849289      -85.831299      -85.822685      -85.797676      -85.808578      -85.818176      -85.838669      -85.844627      -85.826340      -85.802879      -85.773087      -85.759407      -85.792191      -85.779976      -85.766350      -85.727180      -85.744072      -85.699120      -85.678253      -85.617172      -85.642883      -85.666573      -85.718216      -85.735474      -85.688171      -85.707619      -85.724808      -85.764046      -85.750793      -85.784988      -85.811913      -85.819099      -85.794960      -85.802803      -85.824211      -85.826973      -85.808266      -85.783607      -85.751793      -85.739586      -85.775055      -85.637611      -85.694572      -85.711151      -85.659485      -85.593948      -85.510979      -85.474937      -85.565674      -85.534081      -85.435181      -85.391701      -85.499222      -85.584976      -85.612747      -85.675232      -85.653275      -85.628807      -85.554367      -85.520973      -85.601898      -85.572601      -85.540947      -85.445885      -85.484810      -85.375267      -85.327484      -85.180267      -85.238808      -85.293541      -85.419807      -85.461128      -85.344498      -85.198914      -85.017754      -84.941109      -85.136292      -85.069252      -84.997749      -84.772285      -84.859306      -84.600464      -84.495041      -84.155945      -84.283028      -84.403137      -84.699837      -84.793221      -84.516327      -84.622688      -84.722336      -84.962349      -84.880692      -85.089302      -85.257164      -85.311089      -85.155838      -85.217445      -85.360748      -85.406181      -85.274200      -85.108658      -84.902031      -84.815407      -85.038300      -85.537041      -85.601669      -85.609657      -85.554146      -85.478188      -85.377159      -85.338379      -85.450943      -85.418053      -85.293686      -85.243164      -85.379738      -85.486481      -85.569092      -85.587982      -85.514374      -85.415871      -85.517067      -85.545364      -85.453598      -85.336105      -85.186821      -85.124634      -85.287201      -85.233025      -85.056511      -84.982353      -85.173538      -85.326164      -85.447388      -85.484375      -85.373383      -85.735146      -85.724762      -85.678200      -85.693558      -85.640129      -85.618813      -85.543259      -85.571701      -85.616478      -85.596176      -85.657677      -85.671181      -85.712967      -85.705276      -85.741943      -85.744690      -85.735435      -85.742775      -85.716133      -85.714127      -85.684326      -85.680237      -85.632339      -85.643356      -85.648689      -85.649033      -85.682785      -85.674744      -85.691002      -85.706108      -85.721664      -85.700241      -85.738243      -85.735168      -85.694862      -85.702087      -85.705070      -85.704529      -85.731514      -85.736893      -85.760048      -85.750290      -85.762260      -85.776047      -85.784927      -85.789085      -85.766014      -85.765320      -85.806664      -85.817039      -85.805725      -85.798363      -85.786110      -85.768547      -85.770020      -85.791206      -85.792107      -85.767380      -85.761162      -85.789421      -85.811028      -85.827026      -85.823898      -85.810669      -85.831749      -85.846764      -85.847351      -85.835663      -85.836090      -85.844696      -85.838089      -85.832283      -85.808159      -85.822563      -85.823250      -85.805344      -85.797165      -85.819267      -85.811363      -85.784416      -85.704666      -85.749443      -85.768150      -85.730751      -85.749931      -85.781319      -85.788132      -85.761322      -85.681404      -85.726318      -85.709671      -85.658730      -85.623444      -85.683220      -85.647903      -85.576515      -84.608444      -84.305931      -83.931778      -84.335861      -84.551262      -84.587433      -84.842979      -84.785789      -84.987381      -85.049683      -85.217461      -85.158035      -85.040764      -84.842583      -84.612999      -84.864967      -85.071297      -85.206589      -85.343994      -85.239693      -85.376579      -85.487343      -85.548965      -85.456909      -85.516029      -85.595009      -85.624489      -85.553047      -85.464012      -85.418999      -85.300781      -85.353668      -85.390633      -85.419144      -85.516747      -85.494324      -85.577225      -85.643051      -85.654854      -85.594086      -85.607391      -85.662682      -85.667595      -85.618523      -85.554634      -85.536324      -85.445953      -85.472595      -85.368362      -85.237015      -85.189354      -85.332008      -85.296761      -85.261703      -85.102257      -85.144112      -84.954552      -84.906151      -84.666512      -84.719978      -84.792564      -84.867966      -85.072594      -85.011917      -85.221107      -85.142494      -84.957619      -85.061668      -85.167664      -85.264374      -85.369865      -85.299850      -85.404808      -85.452988      -85.517380      -85.487190      -85.448769      -85.348251      -85.290260      -85.407623      -85.500099      -85.527397      -85.588028      -85.572227      -85.627716      -85.669571      -85.667488      -85.633858      -85.634453      -85.659088      -85.641457      -85.626251      -85.601700      -85.599098      -85.550888      -85.566101      -85.568718      -85.555328      -85.566727      -85.592026      -85.605782      -85.611313      -85.565231      -85.569687      -85.514473      -85.499512      -85.409859      -85.436234      -85.455894      -85.522522      -85.522911      -85.468315      -85.472816      -85.468483      -85.496643      -85.514687      -85.534241      -85.534210      -85.486504      -85.501892      -85.456352      -85.423149      -85.341194      -85.395279      -85.424782      -85.428459      -85.454178      -85.467293      -84.215508      -83.846077      -83.405159      -83.873367      -84.230110      -84.493477      -84.718758      -84.504562      -84.731995      -84.902321      -85.050705      -84.918877      -84.736641      -84.502960      -84.206718      -84.500771      -85.087662      -84.945038      -84.746147      -84.930161      -85.071007      -85.169380      -85.262955      -85.193512      -85.290871      -85.335274      -85.389557      -85.366882      -85.315834      -85.237122      -85.106728      -85.214638      -84.442604      -84.727570      -84.863152      -84.617615      -84.798363      -85.002686      -85.132225      -84.968491      -84.523369      -84.767570      -84.546944      -84.239281      -83.947174      -84.315804      -84.090958      -83.658356      -82.476105      -83.127296      -83.500046      -82.962059      -83.408829      -83.864418      -84.229607      -83.880463      -83.005623      -83.472107      -82.854828      -82.177315      -81.569489      -82.321404      -81.677803      -80.699272      -80.103073      -75.878227      -78.496323      -80.981552      -80.149811      -81.279366      -81.506783      -82.155350      -82.163338      -82.872589      -82.775421      -82.368103      -82.709122      -82.336708      -81.428253      -83.630051      -83.624680      -83.171913      -83.076050      -83.326416      -83.448654      -83.918686      -83.798576      -84.194901      -84.302277      -84.614594      -84.523201      -84.430359      -84.376282      -84.029518      -84.072861      -82.910721      -83.474442      -84.024757      -83.679756      -83.988907      -84.284058      -84.268715      -83.864746      -82.627251      -83.338943      -83.679031      -83.383659      -82.958290      -83.314331      -82.204491      -81.295349      -78.481758      -80.076401      -82.671593      -83.162071      -81.612419      -80.073479      -76.546951      -78.125862      -75.561668      -75.097458      -75.954048      -76.936607      -76.104767      -84.600525      -84.298431      -84.200943      -84.519722      -84.781654      -84.995842      -85.050735      -84.848358      -84.913651      -85.104446      -85.156746      -84.977257      -84.756805      -84.679665      -84.393982      -84.487198      -84.159042      -84.046906      -83.627449      -83.761719      -83.283188      -82.709763      -82.519920      -83.123184      -82.959579      -82.325920      -82.128464      -82.793007      -83.350090      -83.490059      -83.932060      -83.814972      -83.696159      -83.576210      -83.064903      -83.208153      -82.624146      -81.928352      -81.726479      -82.453789      -82.282784      -81.523827      -81.321472      -82.112068      -82.777550      -82.921104      -83.455757      -83.335487      -83.801170      -84.187920      -84.271255      -83.901512      -84.101959      -84.001968      -84.354652      -84.437630      -84.713852      -84.645287      -84.883575      -84.940033      -84.826790      -84.576340      -84.507423      -84.770012      -84.984787      -85.159729      -85.197975      -85.031425      -85.124443      -85.078072      -85.236229      -85.274261      -85.395653      -85.364456      -85.468224      -85.493843      -85.442482      -85.333092      -85.301750      -85.416763      -85.509781      -85.530922      -85.602409      -85.584961      -85.645760      -85.694992      -85.707062      -85.660225      -85.674751      -85.719185      -85.731300      -85.689240      -85.637344      -85.573196      -85.552101      -85.619904      -85.671684      -85.614685      -85.594093      -85.654633      -85.703621      -85.743332      -85.755211      -85.717812      -85.731743      -85.766884      -85.778290      -85.745346      -85.704735      -85.688408      -85.634865      -85.654549      -85.592445      -85.515533      -85.486580      -85.568611      -85.544159      -85.519196      -85.426506      -85.456863      -85.348846      -85.311859      -85.170280      -85.215355      -85.259453      -85.385033      -85.420280      -85.302399      -85.344025      -85.454445      -85.487427      -85.384193      -85.459732      -85.422798      -85.519112      -85.549423      -85.621681      -85.596764      -85.659363      -85.679886      -85.637901      -85.570717      -85.543617      -85.615570      -85.673653      -85.692108      -85.735893      -85.720581      -85.758560      -85.789360      -85.800049      -85.771317      -85.783569      -85.810295      -85.820030      -85.795242      -85.764656      -85.726799      -85.709846      -85.750603      -85.790512      -85.758118      -85.742912      -85.777977      -85.806290      -85.829193      -85.837723      -85.816628      -85.826195      -85.845520      -85.852501      -85.834892      -85.812950      -85.802200      -85.772362      -85.785568      -85.751411      -85.708809      -85.689018      -85.735229      -85.717880      -85.699409      -85.645401      -85.667862      -85.605667      -85.578293      -85.494926      -85.528320      -85.559853      -85.631477      -85.655693      -85.589478      -85.506973      -85.470703      -85.359848      -85.404228      -85.276466      -85.117912      -85.051735      -85.222214      -85.164749      -84.981766      -84.908035      -85.104126      -85.263023      -85.391411      -85.432167      -85.312759      -85.348480      -85.210678      -85.155807      -85.303444      -85.256401      -85.207458      -85.038948      -85.098518      -84.904022      -84.831673      -84.577736      -84.665314      -84.749680      -84.973648      -85.040390      -84.830635      -84.573303      -84.259102      -84.141396      -84.475464      -84.373642      -84.268074      -83.892387      -84.019066      -83.590302      -83.439049      -82.894829      -83.074593      -83.248604      -83.736549      -83.877480      -83.416489      -84.142349      -83.732780      -83.577957      -84.012810      -84.371964      -84.666969      -84.756332      -84.479813      -84.582527      -84.841278      -84.921761      -84.680023      -84.383537      -84.265961      -83.880783      -84.021858      -83.583229      -83.414833      -82.854401      -83.054428      -82.420586      -81.664955      -81.386200      -82.184006      -81.937096      -81.095642      -80.793427      -81.679977      -82.427315      -83.054382      -83.238510      -82.645317      -82.862640      -82.200592      -81.965439      -82.663544      -82.457420      -82.244675      -81.471359      -81.722206      -80.850075      -80.555283      -79.474693      -79.819916      -80.155151      -81.136116      -81.412888      -80.479813      -79.379791      -78.090546      -77.649498      -79.000397      -78.609123      -78.206718      -76.729561      -77.195503      -75.560623      -75.026314      -73.090332      -73.694794      -74.288239      -76.082863      -76.591690      -74.868851      -77.564827      -75.985504      -75.435043      -77.085976      -78.517853      -79.746712      -80.100723      -78.930801      -79.328949      -80.441498      -80.768852      -79.711983      -78.473640      -78.027550      -76.519157      -77.035156      -75.383965      -73.519218      -72.851410      -74.792953      -74.184242      -73.559189      -71.469124      -72.167381      -69.962479      -69.198227      -66.806030      -67.622772      -68.435837      -70.716705      -71.458176      -69.241829      -66.937256      -66.081795      -63.748558      -64.634460      -62.436718      -60.447151      -59.556194      -61.540043      -60.661366      -58.690903      -57.854149      -59.804218      -62.008442      -62.871918      -65.226852      -64.376282      -63.533894      -62.703415      -60.335419      -61.161808      -58.971764      -57.048321      -56.275303      -58.166721      -57.391392      -55.536503      -54.832890      -56.647621      -58.755318      -59.532352      -61.888412      -61.092232      -63.573875      -64.369438      -66.875908      -66.103012      -68.583000      -70.931656      -71.603348      -69.312958      -70.039253      -72.266724      -72.919388      -70.758904      -68.426910      -65.989136      -65.175720      -67.651688      -63.836613      -61.285629      -60.566036      -63.110008      -65.691765      -68.217842      -68.894264      -66.403534      -67.124939      -69.574158      -70.254303      -67.852562      -65.336502      -64.579887      -62.028751      -62.792538      -60.317951      -59.568336      -57.288265      -58.006641      -55.936844      -54.165031      -53.533142      -55.260090      -54.618019      -52.937130      -52.376652      -54.010979      -55.948254      -56.601738      -58.845825      -58.152500      -57.490097      -56.860023      -54.743473      -55.328651      -53.439022      -51.851158      -51.359936      -52.901966      -52.399426      -50.902145      -50.476864      -51.930855      -53.677197      -54.192978      -56.263348      -55.700859      -57.969761      -60.430382      -61.060837      -58.572605      -59.872540      -59.207413      -61.719276      -62.403240      -64.993050      -64.310722      -66.888680      -67.548187      -66.242706      -63.648014      -63.007988      -65.613617      -68.156776      -68.755608      -71.112755      -70.559212      -72.764565      -74.741295      -75.182053      -73.263535      -73.766548      -75.624886      -76.067413      -74.270836      -72.238174      -69.984444      -69.365944      -71.673439      -74.481537      -72.476959      -71.856995      -73.928123      -73.368172      -71.233032      -70.607849      -72.804001      -76.507462      -74.773857      -75.273247      -76.943069      -77.372467      -75.766891      -76.252884      -77.794128      -80.252357      -79.120255      -78.757500      -79.942078      -79.625359      -78.387512      -78.011559      -79.303246      -81.338989      -80.404633      -80.679237      -81.572227      -81.801437      -80.949142      -81.213448      -82.025818      -79.845673      -80.864182      -81.102631      -80.126381      -78.976974      -77.631088      -77.247757      -78.647926      -78.317665      -76.863396      -76.480034      -77.987900      -79.282318      -79.563828      -80.624779      -80.385674      -80.148232      -79.913933      -78.726814      -79.002739      -77.660522      -76.099876      -75.725288      -77.337555      -77.021156      -75.358772      -75.002960      -76.713600      -78.193420      -79.461082      -79.684334      -78.456398      -79.245888      -77.939896      -77.697891      -79.040482      -78.846642      -78.666115      -77.256752      -77.469490      -75.867752      -75.619431      -73.741051      -74.026863      -74.334267      -76.134483      -76.417244      -74.660545      -72.663322      -70.436325      -70.026215      -72.293327      -71.945526      -71.622833      -69.286652      -69.641991      -67.158775      -66.779121      -64.170654      -64.562645      -64.990433      -67.571022      -68.013000      -65.451546      -68.973953      -66.462830      -65.943298      -68.481705      -70.869225      -73.052521      -73.457893      -71.321701      -71.790550      -73.876434      -74.305183      -72.272552      -70.016029      -69.486504      -67.007057      -67.572807      -65.004692      -62.393505      -61.807213      -64.419060      -63.859730      -63.3294