<VTKFile type="UnstructuredGrid" version="1.0" byte_order="LittleEndian" header_type="UInt64">
  <UnstructuredGrid>
    <Piece NumberOfPoints="40574" NumberOfCells="18683">
      <CellData Scalars="Scalars_">
        <DataArray type="Float32" Name="Scalars_" format="ascii">
     8.908195      8.909598      8.844124      8.842691      8.726781      8.577526      8.579098      8.728270      8.731249      8.582243      8.586965      8.735723      8.851296      8.846991      8.912409      8.916630      8.922269      8.929335      8.864254      8.857048      8.741697      8.593268      8.601162      8.749181      8.758183      8.610655      8.621757      8.768717      8.883073      8.872925      8.937838      8.947790      8.959208      8.972105      8.907856      8.894711      8.780793      8.634480      8.648835      8.794427      8.809633      8.664838      8.682501      8.826428      8.938730      8.922523      8.986500      9.002409      9.019851      9.038845      8.975834      8.956494      8.844829      8.701838      8.722866      8.864850      8.886510      8.745598      8.770046      8.909824      9.019311      8.996767      9.059411      9.081565      9.105328      9.130714      9.069302      9.043484      8.934809      8.796226      8.824147      8.961477      8.989843      8.853821      8.885256      9.019919      9.125932      9.096780      9.157743      9.186427      9.216779      9.248811      9.189303      9.156770      9.051715      8.918459      8.953434      9.085237      9.120491      8.990184      9.028706      9.157480      9.259484      9.223539      9.282531      9.317945      9.355056      9.393865      9.336500      9.297138      9.196203      9.068997      9.111050      9.236657      9.278834      9.154851      9.200387      9.322722      9.420329      9.377567      9.434366      9.476555      9.520419      9.565945      9.510885      9.464774      9.368307      9.247637      9.296576      9.415568      9.464483      9.347177      9.399403      9.515020      9.608020      9.558642      9.613111      9.661897      9.910675      9.806369      9.869628      9.972492      10.056641      10.105962      10.045684      9.995836      9.936258      9.986650      9.928928      9.877976      9.790677      9.850044      9.744232      9.683308      9.623674      9.732644      9.676007      9.565406      9.508566      9.453215      9.567147      9.620825      9.711511      9.658988      9.712272      9.764203      9.817653      9.765548      9.821054      9.872578      9.999122      9.933914      10.035412      10.099342      10.181617      10.118595      10.167414      10.229959      10.357988      10.293514      10.245617      10.310498      10.229831      10.164185      10.065135      10.131832      10.266722      10.199076      10.296165      10.363065      10.442485      10.376158      10.423284      10.489297      10.623029      10.555918      10.509362      10.576664      10.498014      10.430395      10.334613      10.402582      10.965671      10.863805      10.924842      11.029435      11.113113      11.161595      11.095465      11.047725      10.981524      11.028687      10.961423      10.914684      10.834867      10.900745      10.801049      10.736841      10.671440      10.768241      10.701060      10.605089      10.538019      10.470448      10.565774      10.633512      10.712008      10.644258      10.690506      10.758223      10.826042      10.779764      10.847376      10.893824      11.040629      10.983880      11.091821      11.152608      11.240740      11.177511      11.226922      11.291282      11.416466      11.354516      11.302618      11.362966      11.268490      11.211573      11.094790      11.146061      11.238696      11.194132      11.323133      11.375283      11.478371      11.421607      11.476975      11.535896      11.648413      11.593085      11.533092      11.585619      11.471258      11.424726      11.279451      11.316102      8.921965      8.596284      8.386242      8.736228      9.031533      9.299285      9.435320      9.193316      9.323131      9.541927      9.622636      9.424725      9.197050      9.074340      8.772673      8.918744      8.560027      8.384619      7.866836      8.082841      7.442962      6.593558      6.235451      7.168598      6.861566      5.841497      5.411915      6.520777      7.339381      7.619676      8.178612      7.939272      7.663678      7.348719      6.671350      7.023942      6.145267      4.947401      4.449024      5.734162      5.286622      3.917957      3.354908      4.801784      5.846931      6.279629      6.991112      6.587429      7.130180      7.568865      7.934825      7.515503      7.850106      8.138867      8.512985      8.247586      8.594621      8.833553      9.129853      8.922576      8.672476      8.309388      7.971858      8.374018      8.783523      9.194685      9.395567      9.035132      9.244203      9.415521      9.693858      9.560647      9.867231      9.962622      10.217518      10.157435      10.077253      9.746028      9.595961      9.974733      10.320807      10.381529      10.654318      10.628311      10.895702      11.124307      11.102361      10.894328      10.884451      11.074502      11.041177      10.866756      10.671238      10.454550      10.425589      10.668277      10.648176      10.473009      10.469893      10.664214      10.841923      11.002835      10.959925      10.810611      10.773457      10.912884      10.862141      10.731070      10.592670      10.624040      10.465195      10.447652      10.296237      10.138579      10.120763      10.297250      10.259588      10.285575      10.086942      10.035005      9.798779      9.878654      9.661813      9.553424      9.744186      9.936408      9.974670      9.803669      9.843044      9.995795      10.001889      9.864788      9.871097      9.863918      9.976289      9.994829      10.114116      10.085140      10.192917      10.231195      10.261929      10.133628      10.142296      10.284016      10.421488      10.387723      10.511406      10.554875      10.684028      10.808107      10.751180      10.632877      10.578131      10.691731      10.630121      10.520267      10.410179      10.301036      10.347288      10.462959      10.293940      10.194113      10.249743      10.353658      10.459733      10.566685      10.501737      10.396944      10.332284      10.435574      10.368472      10.266107      10.166863      10.231523      10.134786      10.072343      9.982798      9.897473      9.953170      10.042262      10.148087      10.097600      10.003620      10.047940      9.947757      9.910559      9.815812      9.844980      9.777771      9.865871      9.814743      9.732059      9.645733      9.550612      9.582116      9.685023      9.735559      9.715410      9.603487      9.613293      9.469102      9.471711      9.308848      9.290461      9.312890      9.461428      9.439738      9.304095      9.132613      9.123947      8.879956      8.912545      8.630361      8.273275      8.164679      8.565203      8.479525      8.030660      7.869335      8.371685      8.762042      8.830303      9.100655      9.061218      9.004004      8.927250      8.563168      8.673557      8.240028      7.678868      7.457521      8.082907      7.898708      7.203712      6.916080      7.685882      8.269637      8.429129      8.829058      8.707384      9.037517      9.131721      9.366284      9.293386      9.501421      9.680575      9.718520      9.556165      9.591562      9.738926      9.743965      9.609923      9.451937      9.256064      9.203825      9.418358      9.136286      9.050772      9.111622      9.202567      9.281255      9.352910      9.280989      9.211457      9.138077      9.206188      9.129047      9.061713      8.991173      9.065601      8.984514      8.913580      8.824650      8.890038      8.777054      8.719824      8.594536      8.444588      8.475403      8.640416      8.676948      8.494346      8.500004      8.702983      8.868423      8.826906      8.949571      9.002421      9.047698      9.084438      8.922276      8.900578      8.717302      8.490870      8.465352      8.718607      8.705525      8.421763      8.358347      8.676613      8.929543      8.932346      9.111600      9.128062      9.283838      9.407980      9.367354      9.253371      9.213833      9.166266      9.263719      9.318941      9.407388      9.346810      9.421352      9.485648      9.545051      9.462172      9.510252      9.598724      9.679743      9.758104      9.696784      9.621771      9.558985      9.492137      9.562978      9.631523      9.706389      9.636808      9.715765      9.785844      9.854033      9.773415      9.837319      9.919860      10.007310      9.940162      10.032449      10.100379      10.198741      10.300690      10.232465      10.130487      10.061624      10.164021      10.095561      9.992404      9.893610      9.801202      9.871330      9.963421      9.752764      9.658436      9.730131      9.823303      9.923061      10.027276      9.959342      9.853808      9.784842      9.891919      9.825154      9.716342      9.611911      9.682227      9.586403      9.514293      9.424458      9.342289      9.417532      9.498241      9.644223      9.571601      9.491950      9.565178      9.491738      9.418329      9.348862      9.421897      9.273569      9.343224      9.266842      9.196499      9.118084      9.189566      9.111735      9.038714      8.958741      8.878483      8.955618      9.033660      9.114732      9.039164      9.130269      9.203216      9.276704      9.190607      9.266548      9.350527      9.442342      9.370762      9.472704      9.542010      9.648468      9.759186      9.694136      9.581370      9.515184      9.630118      9.567237      9.450032      9.336508      9.229472      9.299747      9.404155      9.204441      9.091755      9.160093      9.269897      9.386026      9.505586      9.445250      9.323267      9.261845      9.386305      9.328820      9.201842      9.077421      9.140250      9.024586      8.958701      8.847365      8.744020      8.816378      8.916452      9.058050      8.986727      8.889798      8.964120      8.877861      8.800617      8.718240      8.798228      8.638756      8.724095      8.648482      8.559994      8.477362      8.399063      8.483403      8.559069      8.723714      8.641270      8.567954      8.652431      8.582177      8.496250      8.423882      8.510493      8.336318      8.409857      8.323327      8.248183      8.171525      8.260520      8.180116      8.091169      8.004930      7.910697      7.996192      8.092755      8.177950      8.078033      8.155455      8.259879      8.352101      8.267269      8.348402      8.434722      8.519000      8.600716      8.512473      8.434041      8.337856      8.227623      8.293637      8.411141      8.478935      8.352521      8.403217      8.540377      8.656107      8.586734      8.679308      8.754170      8.838641      8.760317      8.833434      8.913601      8.982906      9.050053      8.969643      8.902148      8.819883      8.888214      8.806129      8.736521      8.667281      8.595739      8.679175      8.751174      3.644387      3.163219      2.789248      3.305388      3.818089      4.313324      4.583221      4.121823      4.374673      4.805563      4.984934      4.581413      4.163771      3.928832      3.478821      3.741437      3.956172      4.353986      4.503979      4.127820      4.260859      4.359452      4.699814      4.617952      4.968727      5.033371      5.354638      5.306899      5.231720      4.874345      4.746558      5.125645      5.485596      5.823323      5.889447      5.571049      5.627963      5.659611      5.945851      5.929254      6.209676      6.212286      6.458848      6.469248      6.460349      6.185830      6.137806      6.429385      6.373308      6.288758      5.955994      6.062374      5.727488      5.368045      5.214544      5.598243      5.431571      5.020940      4.782777      5.223128      5.634553      6.019104      6.172040      5.814794      6.816136      6.505288      6.379264      6.716869      7.032519      7.325545      7.372515      7.105293      7.151552      7.396516      7.400323      7.174467      6.928316      6.885442      6.598106      6.661541      6.699063      6.947948      6.947219      6.713813      6.708632      6.686085      6.894828      6.928731      7.130431      7.085958      7.260305      7.314488      7.357152      7.161447      7.176903      7.386446      7.576839      7.748303      7.694928      7.534821      7.481560      7.418649      7.561803      7.632311      7.767556      7.690707      7.806527      7.888377      7.965356      7.838116      7.901261      8.036533      8.100892      8.157331      8.000257      7.955757      7.790955      7.605855      7.619924      7.821249      7.837391      7.616901      7.594421      7.837412      8.053226      8.241533      8.204645      8.033283      7.177877      6.639155      6.343831      6.952948      7.497008      7.966380      8.073895      7.658623      7.788527      8.156319      8.215890      7.889621      7.512777      7.089685      6.886221      7.363244      7.718127      7.382902      7.253900      7.629981      7.964650      8.254743      8.274896      8.016197      8.046677      8.278250      8.266579      8.058328      7.819152      7.549882      7.480421      7.780250      6.010363      6.215827      6.583750      6.412492      6.793054      6.929727      7.252543      7.150136      6.841913      7.014613      6.618251      6.400664      5.936300      6.198390      5.757831      5.452743      4.660678      5.089158      5.620620      5.245281      5.816372      6.135211      6.627600      6.366859      5.684903      6.054489      5.438183      4.994245      4.289037      4.803750      4.160465      3.581261      2.162430      1.438692      0.655139      1.426866      2.160907      2.874187      3.510619      2.848510      3.450719      4.064073      4.541721      3.974322      3.379371      2.748264      2.134547      2.811184      4.298742      3.752065      3.285533      3.873198      4.425929      4.950410      5.296621      4.811889      5.138244      5.586433      5.825512      5.410689      4.968234      4.495304      4.153493      4.661881      1.843470      2.351273      2.906567      2.442482      3.037778      3.458468      3.991028      3.611269      2.658280      3.168803      2.550724      1.991983      1.296400      1.907601      1.259894      0.594579      -1.004468      -0.158339      0.603495      -0.176192      0.638776      1.356330      2.074319      1.411619      -0.170048      0.665080      -0.165240      -1.059630      -2.013403      -1.047228      -1.948979      -2.996379      -11.404582      -13.333552      -15.215176      -13.021395      -11.416077      -10.407566      -8.763077      -9.873071      -8.372739      -7.228118      -5.797898      -6.936434      -8.302191      -9.823351      -11.545664      -9.855263      -8.267204      -6.857951      -5.501784      -6.785605      -5.413031      -4.150263      -3.077417      -4.240473      -3.130145      -2.047367      -1.098017      -2.122416      -3.246039      -4.307938      -5.578453      -4.470813      -3.454805      -2.502275      -1.361004      -2.272474      -1.195848      -0.221412      0.598331      -0.329113      0.502068      1.381035      2.147355      1.322532      0.392080      -0.482608      -1.579183      -0.651558      -1.815691      -3.107191      -4.128922      -2.793147      -3.756996      -4.745309      -6.145049      -5.128089      -6.617033      -7.653136      -9.265765      -8.223659      -7.175148      -6.096401      -4.532293      -5.589374      -2.023667      -3.355280      -4.856307      -3.411463      -1.804467      -0.098738      0.961902      -0.566461      0.545031      1.912663      2.760012      1.537651      0.346469      -0.773612      -1.997826      -0.776241      0.317550      1.344807      2.229842      1.291844      2.155023      2.915431      3.693730      3.010036      3.881471      4.477740      5.252152      4.749955      4.171743      3.197912      2.419284      3.510732      4.577380      5.576590      6.000625      5.117581      5.588360      5.995301      6.684525      6.368497      7.066428      7.300653      7.831454      7.666739      7.469836      6.791145      6.471617      7.238376      6.970081      6.662848      5.687577      6.104738      5.092077      3.962087      3.266040      4.542863      3.924928      2.483684      1.609683      3.234584      4.692368      5.924647      6.314847      5.217509      -3.793644      -7.475892      -9.283296      -5.101506      -1.362343      1.397714      2.062196      -0.482436      0.387300      2.713267      3.340669      1.227876      -1.390141      -4.299540      -5.821877      -2.554341      0.700295      -1.610543      -2.897877      -0.304680      2.026867      3.936720      4.495978      2.776390      3.471770      5.014875      5.491371      4.110650      2.468620      0.639017      -0.432961      1.624453      -8.317371      -6.508118      -4.943935      -6.626663      -4.688422      -3.176223      -1.275168      -2.572412      -5.541764      -3.994121      -6.347189      -8.158360      -10.453280      -8.463077      -10.290310      -12.433228      -17.260408      -14.753402      -12.592162      -14.866115      -12.267612      -10.128513      -7.213251      -9.000404      -12.824618      -10.884108      -14.594963      -17.151770      -19.680035      -17.246931      -19.967293      -22.889723      -23.545576      -34.619137      -27.000931      -21.645432      -24.699507      -21.494020      -20.431610      -18.660421      -18.695419      -16.161951      -16.674791      -18.041101      -18.019897      -19.160858      -20.536846      -13.732950      -14.591537      -16.393742      -15.806945      -14.638399      -13.828260      -11.664911      -12.634654      -10.708173      -9.658875      -7.804004      -8.883748      -9.946280      -10.974299      -12.761244      -11.782664      -19.275810      -17.191584      -14.638581      -16.205019      -14.488540      -12.970256      -12.174403      -14.093803      -18.721727      -16.231272      -15.898424      -17.083529      -18.839851      -17.644564      -21.506792      -23.976528      -30.598276      -26.883547      -19.603119      -17.848822      -21.834755      -26.100010      -35.159660      -31.341665      -40.490459      -41.855152      -38.373917      -34.299381      -37.100677      6.140966      6.285693      6.187688      6.041796      5.886424      5.720731      5.821012      5.986358      6.086468      5.921058      6.020061      6.186018      6.340302      6.240690      6.384597      6.483804      6.617527      6.519178      6.645506      6.742562      6.860078      6.971313      6.878077      6.764734      6.670705      6.786408      6.696662      6.578399      6.454916      6.549469      6.421508      6.325049      6.230290      6.137686      6.271971      6.362283      6.488196      6.609171      6.524243      6.400452      6.315493      6.442166      6.363209      6.233626      6.099774      6.184352      6.047655      5.960587      5.815050      5.662213      5.753500      5.904361      6.091132      5.996533      5.847520      5.943793      5.787342      5.689737      5.522379      5.620959      5.425620      5.594182      5.501206      5.331262      5.151734      4.962127      5.058290      5.247157      5.443957      5.344775      5.156416      5.255820      5.056237      4.956986      4.746400      4.845144      4.648283      4.858700      4.762118      4.551586      4.330626      4.427166      4.195727      4.099561      3.858936      3.609493      3.704545      3.954577      4.050702      3.799769      3.894142      4.146339      4.389553      4.622749      4.524826      4.292695      4.578871      4.815587      4.720006      4.485305      4.240431      3.986545      4.075758      4.331825      4.419263      4.160448      4.239162      4.501372      4.754610      4.669068      4.908387      4.997205      5.227860      5.445712      5.351381      5.136076      5.040966      4.943646      5.155649      5.254347      5.455423      5.355758      5.544017      5.644211      5.743727      5.553934      5.650331      5.841682      5.937113      5.743568      5.832502      6.028965      6.197204      6.116085      5.915879      5.992327      5.771732      5.700637      5.470470      5.535554      5.396453      5.621635      5.536209      5.315097      5.080729      5.157526      4.905970      4.834089      4.576651      4.310308      4.372147      4.643459      4.700002      4.422773      4.460103      4.744317      5.020055      5.284520      5.226027      4.968571      5.081439      5.363797      5.331128      5.058411      4.774254      4.481852      4.485524      4.787463      4.781374      4.468383      4.427445      4.753178      5.071666      5.086733      5.380281      5.378123      5.668998      5.942078      5.920522      5.658877      5.631764      5.589957      5.833296      5.883545      6.118255      6.060338      6.270932      6.335737      6.389931      6.164256      6.196336      6.431653      6.648493      6.597951      6.789038      6.847628      7.029927      7.196271      7.123898      6.964050      6.889872      7.044548      6.959460      6.808792      6.644421      6.465411      6.536353      6.720783      6.386676      6.561361      6.472883      6.301553      6.211319      6.117136      6.284203      6.380145      6.536222      6.439076      6.582664      6.680469      6.776447      6.630871      6.722075      6.869753      7.005416      7.130167      7.034554      6.910638      6.813911      6.715981      6.840129      6.937658      7.052904      6.956294      7.065732      7.160923      7.256440      7.149392      7.245199      7.351804      7.432278      7.539951      7.446496      7.339715      7.223791      7.097432      7.185792      7.314653      7.401908      7.269519      7.347533      7.484630      7.608598      7.522168      7.631560      7.720659      7.822257      7.731526      7.823689      7.915059      8.000921      8.081829      7.991818      7.909827      7.818310      7.901850      7.812256      7.726763      7.638430      7.545554      7.639106      7.731324      7.451385      7.545442      7.452761      7.357076      7.263068      7.169771      7.269795      7.360763      7.455480      7.367231      7.463525      7.548721      7.635413      7.545019      7.635553      7.723348      7.810469      7.898537      7.816857      7.725511      7.641990      7.560121      7.658431      7.736761      7.834448      7.759809      7.865509      7.936366      8.009120      7.910933      7.989109      8.083640      8.149857      8.237402      8.159785      8.068810      7.981606      7.896635      7.983763      8.065853      8.151053      8.071589      8.159831      8.236965      8.315200      8.232057      8.316325      8.396377      8.482154      8.573952      8.500660      8.405417      8.329952      8.255911      8.358350      8.428749      8.534730      8.467967      8.585217      8.648418      8.713241      8.603068      8.672872      8.779591      8.894209      8.831203      8.956194      9.016043      9.143332      9.272858      9.218472      9.086382      9.031049      9.165711      9.114616      8.977385      8.841361      8.897945      8.769767      8.709981      8.651912      8.595622      8.733400      8.786496      8.925433      9.065225      9.017568      8.875236      8.826826      8.971670      8.927554      8.780231      8.632686      8.682117      8.541165      8.488592      8.350170      8.406131      8.278099      8.218560      8.094121      7.976644      8.043686      8.157372      8.222557      8.112653      8.183434      8.289583      8.402882      8.523719      8.464001      8.339565      8.052159      8.194263      8.146431      8.000954      7.862029      7.729639      7.788042      7.916774      7.973748      7.848731      7.911627      8.032887      8.161016      8.105531      8.244189      8.296173      8.437945      8.389261      8.539500      8.585137      8.735477      8.885237      8.844731      8.692584      8.651566      8.806046      8.769188      8.612435      8.454051      8.495798      8.342573      8.297911      8.255299      8.214756      8.376483      8.414275      8.575202      8.734159      8.700960      8.539870      8.506445      8.669588      8.640039      8.474925      8.306884      8.340683      8.176302      8.139951      7.976702      7.818635      7.860764      8.015841      8.100731      8.057193      7.905216      7.951958      7.809573      7.759460      7.619984      7.673597      7.568862      7.711739      7.666455      7.520290      7.379857      7.431817      7.299992      7.244576      7.113663      6.986196      7.048608      7.172574      7.234342      7.113962      7.182131      7.298862      7.419023      7.543641      7.486435      7.358171      7.687160      7.796670      7.729962      7.616635      7.548361      7.665491      7.603354      7.482454      7.252980      7.366017      7.435687      7.326363      7.402125      7.507740      7.582038      7.480103      7.280550      7.380060      7.298545      7.195694      7.112907      7.219190      7.142185      7.032415      6.810920      6.922416      7.006220      6.897821      6.986805      7.092231      7.180183      7.077565      6.762404      6.644500      6.726390      6.841067      6.954432      7.067714      6.995947      6.879155      6.806773      6.927044      6.861155      6.737460      6.613995      6.686646      6.565499      6.489624      6.417092      6.348109      6.478763      6.544641      6.671381      6.798420      6.738971      6.608690      6.549530      6.682930      6.630413      6.494034      6.358088      6.221539      6.282866      6.416527      6.164294      6.303588      6.253160      6.111282      6.062643      6.018502      6.164997      6.206926      6.350726      6.311033      6.457573      6.495018      6.536363      6.394522      6.442327      6.581524      6.722178      6.865247      6.825357      6.679661      6.640766      6.605562      6.755911      6.788892      6.940261      6.909466      7.066982      7.095639      7.127366      6.974330      7.011629      7.162126      7.095699      7.240579      7.199878      7.052104      6.908499      6.768241      6.817768      6.955044      7.004808      6.870668      6.926846      7.057710      7.192004      7.142355      7.284178      7.330623      7.474322      7.623649      7.583359      7.431005      7.390386      7.352505      7.510456      7.545618      7.706475      7.673909      7.842623      7.872741      7.905136      7.741465      7.778860      7.939794      8.105715      8.073602      8.245302      8.275089      8.445310      8.612307      8.586382      8.417595      8.391777      8.562256      8.539918      8.367849      8.191751      8.217523      8.043620      8.015776      7.990072      7.966511      8.146218      8.167984      8.345805      8.519358      8.500564      8.325637      8.307336      8.483524      8.468227      8.290895      8.108680      8.126452      7.945095      7.925824      7.745110      7.766030      7.590940      7.568240      7.396119      7.229066      7.255651      7.420713      7.447980      7.285105      7.317400      7.477902      7.643788      7.814793      7.789259      7.616127      7.515162      7.696255      7.684616      7.502502      7.324793      7.151859      7.166753      7.338541      7.355019      7.184597      7.205374      7.374216      7.548038      7.530343      7.710219      7.726505      7.908698      7.893715      8.079100      8.092896      8.276303      8.454662      8.442819      8.263556      8.252645      8.432686      8.424256      8.243565      8.057442      8.067282      7.880877      7.870180      7.861624      7.855209      8.043676      8.049574      8.236306      8.417522      8.412477      8.230867      8.227243      8.409117      8.407437      8.225432      8.037781      8.039745      7.850932      7.848794      7.661328      7.477157      7.479693      7.663657      7.675302      7.668315      7.484764      7.492368      7.313785      7.305521      7.130971      7.139929      7.124995      7.300010      7.297254      7.122006      6.951379      6.954611      6.788519      6.785036      6.622427      6.462859      6.466864      6.626168      6.633646      6.474867      6.486854      6.644847      6.805913      6.970754      6.961072      6.795481      6.881988      7.041427      7.019003      6.857863      6.837125      6.999736      6.983647      6.819801      6.502803      6.659756      6.678348      6.522687      6.546471      6.700595      6.726463      6.574112      6.275531      6.424100      6.394666      6.244296      6.217397      6.369328      6.348137      6.194891      5.889036      6.042163      6.065982      5.914159      5.944164      6.094441      6.127472      5.978975      6.008657      5.853682      5.868859      6.023040      6.176827      6.331134      6.318352      6.163246      6.154175      6.309817      6.305545      6.149634      5.994241      5.999051      5.843542      5.838465      5.681403      5.522160      5.527760      5.686743      5.713372      5.697409      5.538941      5.555674      5.394882      5.377401      5.211942      5.230145      5.199773      5.365717      5.359866      5.193678      5.022797      5.029125      4.853023      4.846474      4.664022      4.474829      4.481778      4.670778      4.684264      4.495647      4.516378      4.704426      4.885643      4.866096      5.041758      5.060651      5.085738      5.116929      4.943846      4.911593      4.731184      4.543886      4.578053      4.764431      4.804035      4.618735      4.665760      4.849836      5.026751      4.982281     