<VTKFile type="UnstructuredGrid" version="1.0" byte_order="LittleEndian" header_type="UInt64">
  <UnstructuredGrid>
    <Piece NumberOfPoints="40574" NumberOfCells="18683">
      <CellData Scalars="Scalars_">
        <DataArray type="Float32" Name="Scalars_" format="ascii">
     3.594010      3.594292      3.542198      3.541920      3.445307      3.313775      3.314036      3.445579      3.446122      3.314557      3.315334      3.446932      3.543585      3.542754      3.594854      3.595694      3.596809      3.598193      3.546053      3.544686      3.448005      3.316362      3.317634      3.449337      3.450917      3.319141      3.320871      3.452739      3.549558      3.547680      3.599842      3.601747      3.603899      3.606289      3.554027      3.551677      3.454790      3.322811      3.324946      3.457057      3.459526      3.327257      3.329723      3.462178      3.559362      3.556594      3.608902      3.611726      3.614744      3.617936      3.565428      3.562313      3.464993      3.332321      3.335022      3.467948      3.471017      3.337796      3.340608      3.474170      3.572052      3.568683      3.621281      3.624755      3.628330      3.631975      3.579012      3.575506      3.477375      3.343418      3.346183      3.480592      3.483782      3.348853      3.351375      3.486897      3.586025      3.582532      3.635655      3.639333      3.642962      3.646497      3.592738      3.589444      3.489885      3.353686      3.355720      3.492688      3.495241      3.357401      3.358647      3.497474      3.598716      3.595850      3.649882      3.653058      3.655958      3.658511      3.603423      3.601267      3.499308      3.359365      3.359456      3.500656      3.501422      3.358809      3.357300      3.501502      3.606205      3.605100      3.660635      3.662241      3.663235      3.663508      3.606273      3.606633      3.500780      3.354797      3.351153      3.499130      3.496415      3.346208      3.339787      3.492484      3.602684      3.605001      3.662946      3.661422      3.415302      3.235311      3.208710      3.394471      3.526209      3.595572      3.610772      3.543271      3.557737      3.623558      3.634159      3.569852      3.448354      3.433170      3.258392      3.278281      3.295284      3.461112      3.471688      3.309682      3.321740      3.331700      3.487174      3.480306      3.594315      3.599175      3.658800      3.654929      3.649651      3.587934      3.579847      3.642789      3.143523      3.178239      3.370379      3.342711      3.483230      3.506288      3.577712      3.556934      3.505513      3.532964      3.456741      3.426511      3.275280      3.311130      3.104164      3.059738      2.953875      3.009799      3.234788      3.189259      3.353503      3.392212      3.474280      3.438947      3.354661      3.399188      3.310028      3.261420      3.081433      3.138283      2.891471      2.822070      2.480617      2.093304      1.947494      2.360195      2.641016      2.784225      2.879670      2.744737      2.840213      2.967530      3.048133      2.927817      2.693191      2.591465      2.227520      2.350718      2.463487      2.786262      2.871148      2.566420      2.660109      2.745135      3.018265      2.948326      3.147273      3.207298      3.305020      3.249908      3.188965      3.080950      3.007931      3.121827      1.618887      1.789531      2.229770      2.088939      2.407478      2.528704      2.680886      2.569371      2.320867      2.449433      2.277054      2.137188      1.774647      1.937337      1.435074      1.237657      0.800597      1.026262      1.600607      1.415026      1.828434      1.987692      2.183516      2.037281      1.718098      1.882128      1.659358      1.480483      1.008882      1.217791      0.560463      0.305770      -15.096176      -17.692926      -18.829824      -16.178602      -13.729142      -11.461716      -10.526030      -12.713634      -11.744898      -9.640161      -8.803555      -10.823169      -13.054613      -14.054456      -16.588024      -15.517318      -18.230835      -19.367046      -22.412394      -21.212208      -24.473183      -28.017540      -29.360683      -25.740717      -27.012184      -30.697321      -32.020569      -28.282175      -24.851587      -23.626959      -20.527971      -21.710348      -22.910782      -24.125776      -27.312916      -26.081791      -29.545107      -33.323273      -34.598198      -30.795273      -32.026878      -35.838284      -37.037140      -33.234062      -29.758247      -28.540108      -25.351753      -26.585072      -23.650084      -20.887140      -19.656153      -22.408907      -21.190222      -19.996389      -17.300390      -18.460077      -15.898359      -14.790946      -12.447486      -13.483321      -14.568917      -17.050535      -18.246521      -15.703710      -13.257143      -10.920938      -9.973879      -12.206971      -11.208206      -10.260987      -8.231417      -9.077465      -7.102655      -6.364605      -4.669160      -5.298491      -5.969128      -7.887403      -8.719412      -6.681735      -4.835951      -4.239683      -2.715054      -3.204118      -1.800082      -0.629928      -0.313189      -1.404947      -1.033277      -0.014946      0.264995      -0.684744      -1.824402      -3.153629      -3.679114      -2.255308      -1.046261      -2.204344      -2.662385      -1.421663      -0.358862      0.526957      0.771375      -0.055013      0.227530      0.998777      1.209765      0.489578      -0.373544      -0.697240      -1.778318      -1.383004      -2.542783      -3.857584      -4.420349      -3.018435      -4.080190      -3.530402      -5.024744      -5.672360      -7.435093      -6.687524      -8.519995      -9.365100      -7.724808      -5.987461      -5.333416      -6.978403      -6.279399      -4.723716      -4.156542      -5.626220      -5.017132      -4.450279      -3.142015      -3.629971      -2.401283      -1.986894      -0.970190      -1.317266      -1.693901      -2.849915      -3.334717      -2.101832      -1.017014      -0.678905      0.202427      -0.074046      0.732005      1.404996      1.585172      0.955734      1.161712      1.751025      1.903304      1.350904      0.691134      -0.080421      -0.367202      0.457082      1.102270      0.424273      0.182919      0.905797      1.524279      2.042764      2.170162      1.682796      1.827400      2.286246      2.391750      1.959013      1.445309      1.281727      0.645065      0.846677      0.156756      -0.633450      -0.929951      -0.089112      -0.650938      -0.357803      -1.253127      -1.604814      -2.690651      -2.273850      -3.435491      -3.923728      -2.983562      -1.889599      -1.535921      -2.565935      -3.742148      -5.086145      -5.653206      -4.230789      -5.322804      -4.757054      -6.260538      -6.909638      -8.707525      -7.969505      -9.906531      -10.738726      -9.116909      -7.274348      -6.621172      -8.369828      -10.350796      -11.199334      -13.532093      -12.575123      -15.043066      -17.742538      -18.934553      -16.114716      -17.223967      -20.161606      -21.419853      -18.367771      -15.564234      -14.529151      -12.089740      -13.021022      -13.991819      -15.000414      -17.738312      -16.634892      -19.542704      -22.705065      -24.012625      -20.744978      -21.970476      -25.337543      -26.674438      -23.214781      -20.030546      -18.871344      -16.044743      -17.122435      -14.482824      -13.486339      -11.184100      -12.097596      -9.948420      -8.015391      -7.274604      -9.120360      -8.338442      -6.579911      -5.929848      -7.601871      -9.489069      -11.613212      -12.529389      -10.314546      -3.513386      -4.745691      -5.252569      -3.942095      -2.796825      -1.797343      -1.495153      -2.436011      -2.103485      -1.217785      -0.963598      -1.797554      -2.750141      -3.116625      -4.274560      -3.837626      -5.075366      -5.593481      -7.086232      -6.475887      -8.046649      -9.787882      -10.613180      -8.759835      -9.519352      -11.488401      -12.413317      -10.325593      -8.434991      -7.738960      -6.149872      -6.745846      -7.382531      -8.060844      -9.959191      -9.174962      -11.178570      -13.387238      -14.409001      -12.077877      -13.022670      -15.476961      -16.589001      -14.011650      -11.659893      -10.787642      -8.781454      -9.544746      -7.664966      -6.008898      -5.436283      -7.001736      -6.379311      -5.796658      -4.404408      -4.901949      -3.610247      -3.187654      -2.126060      -2.483066      -2.870176      -4.066365      -4.557756      -3.289242      -2.180628      -1.210885      -0.912625      -1.825695      -1.499244      -1.199441      -0.389316      -0.639343      0.113401      0.320242      0.942306      0.772745      0.586219      -0.113444      -0.361850      0.381366      1.030441      1.197633      1.729216      1.594119      2.078527      2.487388      2.573851      2.186804      2.284667      2.651806      2.721889      2.372904      1.962265      1.487116      1.349473      1.851610      2.151951      1.724133      1.611659      2.062092      2.452262      2.784708      2.840838      2.523448      2.587127      2.890825      2.935182      2.643927      2.304957      2.232653      1.825510      1.916698      1.475560      0.975887      0.835101      1.361709      1.096189      1.235609      0.679735      0.508554      -0.160902      0.047462      -0.672795      -0.924521      -0.442648      0.237253      0.409867      -0.232543      -0.041026      0.566619      0.708744      0.133283      0.291680      0.435390      0.953669      0.837400      1.322002      1.415340      1.827546      1.753317      1.670460      1.218289      1.103255      1.578166      1.998550      2.071858      2.427165      2.369573      2.694434      2.974392      3.008907      2.739197      2.778727      3.039147      3.065508      2.813500      2.523701      2.195744      2.137360      2.478350      2.598993      2.293652      2.247645      2.563751      2.843956      3.088354      3.108025      2.870506      2.893527      3.124834      3.139071      2.913368      2.656835      2.629881      2.334311      2.370123      2.052430      1.701588      1.641575      2.005721      1.893900      1.953076      1.574340      1.499180      1.058565      1.153028      0.683270      0.565561      0.789523      1.237940      1.314115      0.885264      0.409102      -0.121355      -0.269107      0.289749      0.012170      0.157797      -0.431903      -0.610964      -1.314255      -1.095321      -1.842489      -2.108678      -1.599079      -0.895669      -0.713927      -1.376919      -2.118645      -2.388445      -3.272113      -2.946798      -3.867695      -4.885448      -5.346604      -4.256793      -4.680266      -5.847426      -6.389939      -5.140071      -4.013051      -3.626919      -2.683351      -3.005049      -3.355252      -3.735685      -4.886576      -4.432338      -5.638109      -6.976048      -7.607500      -6.176191      -6.756000      -8.285826      -9.012299      -7.379052      -5.906765      -5.377502      -4.148065      -4.594079      -3.433277      -3.059869      -2.101343      -2.412265      -1.516568      -0.731021      -0.518549      -1.258928      -1.023091      -0.324753      -0.148275      -0.807576      -1.553902      -2.399222      -2.715737      -1.815751      -37.121971      -38.666389      -40.828480      -39.242695      -37.564064      -35.794052      -33.778858      -35.492405      -33.496471      -31.840097      -29.980186      -31.579493      -33.107758      -35.075584      -36.576530      -34.564262      -32.633007      -31.221102      -29.417034      -30.784704      -29.020229      -27.339693      -26.058329      -27.696119      -26.317307      -24.727526      -23.348017      -24.884418      -26.501883      -27.989233      -29.743410      -28.200544      -26.595070      -24.931311      -23.360914      -24.957615      -23.400194      -21.922678      -20.456350      -21.869299      -20.298412      -18.955889      -17.430302      -18.696476      -20.038412      -21.718248      -23.215513      -21.456272      -22.949940      -24.519035      -26.441545      -24.790075      -26.580359      -28.312407      -30.109104      -28.307631      -30.112318      -31.984116      -33.935650      -31.993071      -29.972055      -27.880613      -26.162910      -28.169231      -22.008991      -24.104506      -25.729921      -23.535130      -21.315895      -19.096405      -17.787754      -19.895603      -18.543747      -16.545317      -15.369752      -17.261148      -19.168886      -20.553280      -22.551323      -21.071283      -19.665022      -17.856401      -16.616091      -18.332891      -17.074942      -15.890894      -14.351234      -15.447863      -13.831664      -12.826824      -11.334410      -12.244496      -13.219765      -14.905231      -16.048283      -14.261301      -12.517796      -10.840213      -10.007049      -11.580293      -10.705150      -9.890946      -8.512361      -9.231668      -7.839884      -7.212306      -6.001164      -6.542164      -7.128361      -8.518210      -9.249200      -7.761772      -8.444221      -9.177283      -10.875381      -10.034490      -11.732513      -13.518665      -14.583460      -12.684896      -13.697865      -15.712276      -16.904749      -14.771454      -12.727201      -10.799986      -9.962232      -11.772788      -23.889738      -26.915672      -28.555071      -25.395128      -22.317818      -19.368828      -18.128822      -20.946222      -19.618725      -16.932713      -15.783258      -18.338482      -21.017105      -23.779190      -25.322536      -22.429276      -18.349190      -20.853874      -22.288731      -19.656210      -17.108248      -14.682770      -13.633085      -15.930350      -14.806678      -12.635563      -11.691069      -13.738648      -15.905224      -18.160065      -19.476984      -17.098259      -29.192204      -27.426352      -25.130510      -26.793638      -24.356852      -22.803465      -20.470221      -21.907795      -24.966906      -23.407383      -25.974272      -27.653595      -30.315275      -28.522661      -31.025400      -32.923210      -36.897186      -34.882042      -32.168587      -34.078934      -31.187231      -29.392271      -26.583942      -28.255676      -31.749533      -29.978823      -33.034740      -34.930225      -38.050961      -36.041683      -38.962509      -41.070171      -46.935944      -49.276066      -51.571632      -49.216740      -46.674416      -43.953289      -41.766319      -44.429520      -42.208496      -39.614178      -37.507332      -40.024933      -42.420799      -44.685471      -46.974003      -44.665005      -38.065239      -40.213921      -42.427486      -40.217205      -37.889698      -35.454014      -33.460533      -35.811234      -33.795910      -31.531630      -29.670805      -31.848398      -33.947788      -35.960896      -38.055649      -35.973347      -45.335102      -43.054977      -41.431450      -43.679325      -41.912575      -39.706501      -37.881908      -40.036880      -44.514351      -42.251183      -44.172497      -46.473366      -48.301243      -45.974373      -47.654709      -49.996082      -54.656647      -52.338074      -50.641102      -52.971897      -51.129639      -48.798946      -46.812851      -49.129875      -53.736805      -51.445438      -53.442875      -55.713898      -57.506638      -55.269058      -56.925926      -59.119579      -69.651024      -70.649025      -71.609772      -70.716187      -69.654282      -68.410576      -67.106682      -68.476166      -67.115608      -65.624649      -63.973637      -65.579254      -66.974762      -68.402412      -69.504379      -68.179085      -66.677994      -65.374794      -63.612373      -65.008575      -63.181732      -61.212395      -59.658764      -61.701141      -60.026863      -57.916985      -55.979351      -58.147785      -60.217503      -62.020149      -63.876495      -62.165955      -60.219475      -58.013615      -55.909962      -58.186409      -56.051308      -53.838131      -51.487663      -53.726620      -51.167599      -48.926800      -46.162113      -48.377220      -50.580547      -53.375504      -55.527725      -52.751926      -54.869724      -56.911743      -59.572742      -57.601006      -60.014282      -62.128582      -63.894707      -61.890594      -63.623932      -65.502151      -66.938446      -65.198830      -63.130413      -60.682854      -58.856236      -61.422028      -52.565151      -55.902008      -57.817207      -54.525440      -50.845680      -46.862453      -44.965790      -48.891750      -46.898849      -43.048458      -41.123604      -44.883217      -48.473175      -50.541363      -53.895790      -51.819172      -49.692955      -46.378895      -44.275440      -47.537277      -45.370823      -43.210304      -40.099403      -42.177910      -38.841438      -36.868080      -33.563244      -35.414551      -37.297009      -40.841991      -42.859802      -39.203007      -35.485229      -31.783312      -30.140812      -33.707523      -31.955967      -30.236708      -26.941677      -28.525152      -25.178648      -23.729948      -20.649538      -21.967346      -23.318235      -26.659519      -28.167690      -24.697775      -26.101099      -27.522881      -31.243736      -29.697762      -33.446625      -37.281982      -39.089642      -35.123940      -36.807587      -40.898937      -42.699459      -38.488964      -34.355949      -30.397913      -28.957281      -32.798943      -49.281784      -54.023254      -55.319004      -50.533306      -45.661594      -41.153393      -39.977238      -44.481117      -43.202538      -38.730183      -37.424614      -41.844273      -46.494801      -51.142647      -52.629532      -47.931099      -43.419033      -47.929150      -49.571922      -44.986359      -40.422211      -36.072178      -34.683693      -38.950386      -37.441376      -33.269161      -31.837765      -35.906494      -40.158504      -44.479721      -46.227310      -41.805672      -61.298229      -59.621857      -56.403057      -58.179523      -54.568287      -52.743603      -48.724129      -50.535591      -53.944595      -52.281067      -56.303009      -57.932323      -61.362209      -59.837688      -62.830883      -64.206810      -66.447906      -65.415359      -62.739628      -63.958088      -60.824234      -59.442860      -55.510250      -56.962051      -59.453972      -58.283192      -62.070339      -63.181568      -65.872635      -65.006470      -67.297623      -67.959442      -71.013908      -71.718918      -71.170753      -70.262276      -69.350471      -68.939316      -70.091621      -69.703613      -68.319351      -67.498573      -69.095840      -70.344284      -71.244865      -71.466270      -70.782028      -68.861839      -70.129715      -70.794739      -69.702850      -68.280487      -66.484848      -65.286362      -67.267212      -66.064751      -63.912273      -62.373413      -64.682281      -66.602905      -68.193764      -69.260002      -67.826454      -72.968567      -72.383972      -71.594955      -72.285179      -71.444557      -70.645081      -69.529602      -70.458496      -71.726639      -71.192558      -72.048622      -72.452248      -73.093636      -72.785103      -73.358955      -73.547569      -73.362946      -73.521423      -73.211731      -72.648697      -72.054192      -72.166138      -72.081512      -72.189262      -72.373436      -72.251381      -72.813591      -73.115471      -72.980820      -5.732857      -4.993091      -4.677966      -5.375742      -6.102151      -6.853982      -7.299205      -6.502834      -6.945365      -7.790094      -8.329918      -7.432901      -6.563796      -6.127877      -5.342144      -5.727914      -4.929832      -4.592004      -3.880445      -4.173182      -3.460500      -2.793160      -2.580182      -3.209497      -2.983205      -2.388376      -2.215978      -2.779601      -3.378270      -3.616237      -4.286735      -4.011478      -3.763810      -3.541445      -2.972532      -3.164379      -2.596780      -2.061334      -1.922900      -2.432958      -2.286473      -1.799237      -1.689016      -2.155781      -2.647487      -2.800824      -3.342233      -3.164171      -3.705448      -4.270525      -4.503578      -3.910157      -4.394101      -4.138961      -4.763795      -5.053642      -5.740243      -5.414147      -6.087776      -6.451215      -5.760657      -5.121031      -4.858215      -5.466990      -6.095043      -6.740367      -7.097539      -6.420289      -7.183484      -6.782094      -7.494279      -7.933731      -8.698551      -8.221413      -8.960630      -9.474621      -8.494997      -7.789926      -7.400865      -8.074454      -8.759208      -9.210485      -9.934465      -9.453499      -10.156163      -10.866657      -11.403009      -10.665540      -11.226539      -11.992624      -12.638606      -11.842344      -11.048764      -10.258887      -9.709287      -10.465138      -12.387751      -11.523622      -10.862577      -11.688576      -12.516109      -13.344000      -14.111757      -13.250901      -14.049667      -14.944690      -15.845438      -14.915184      -13.976321      -13.149361      -12.245202      -13.030370      -12.080229      -11.129925      -10.437037      -11.339869      -10.660946      -10.040286      -9.224645      -9.803031      -8.953832      -8.419144      -7.627607      -8.117707      -8.657087      -9.541133      -10.184361      -9.249064      -9.896922      -10.886755      -11.651414      -10.603855      -12.206932      -11.372910      -12.481247      -13.378916      -14.550202      -13.592372      -14.699003      -15.712994      -13.757110      -12.704739      -11.884836      -12.885038      -13.881996      -14.802727      -15.836950      -14.871355      -15.850028      -16.816446      -17.859943      -16.856548      -17.936855      -18.977947      -20.172268      -19.092821      -17.988503      -16.860773      -15.794950      -16.875343      -20.445723      -19.220205      -18.002012      -19.178141      -20.326094      -21.444530      -22.796183      -21.638113      -23.030132      -24.228525      -25.742706      -24.503235      -23.219471      -21.792486      -20.516619      -21.892286      -20.524704      -19.121721      -17.864815      -19.205694      -17.964832      -16.801050      -15.580389      -16.684761      -15.386912      -14.346791      -13.108498      -14.079879      -15.122999      -16.500969      -17.690298      -16.239414      -14.780105      -13.741545      -12.368815      -13.325319      -11.889523      -10.487998      -9.703376      -11.018160      -10.210756      -8.978329      -8.310366      -9.465001      -10.656863      -11.875027      -12.773788      -11.480022      -11.043087      -9.896934      -9.197550      -10.275475      -9.569423      -8.921950      -7.968646      -8.555808      -7.570664      -7.043687      -6.153286      -6.621222      -7.134720      -8.147845      -8.778301      -7.696783      -6.661178      -5.678968      -5.247119      -6.165712      -5.713900      -5.302880      -4.496854      -4.853968      -4.045297      -3.738353      -3.029183      -3.290223      -3.578355      -4.383673      -4.755901      -3.895736      -5.611878      -4.627245      -4.244602      -5.164464      -6.152213      -7.203159      -7.794475      -6.669555      -7.233660      -8.437857      -9.135887      -7.847112      -6.633338      -6.100671      -5.045997      -5.503196      -4.461852      -4.073672      -3.184702      -3.510992      -2.649152      -1.872301      -1.647812      -2.377382      -2.129738      -1.443634      -1.258284      -1.904524      -2.615571      -3.394952      -3.718752      -2.886868      -3.100169      -2.368947      -2.145196      -2.832357      -2.589539      -2.369819      -1.759502      -1.942596      -1.347505      -1.196415      -0.677902      -0.801395      -0.938475      -1.514933      -1.700110      -1.090346      -0.535375      -0.030345      0.069147      -0.411911      -0.300702      -0.200727      0.238682      0.158535      0.580406      0.643992      1.018754      0.968889      0.912858      0.509255      0.429808      0.850042      0.242829      0.701350      0.779778      0.341279      -0.140866      -0.672182      -0.823485      -0.263403      -0.399006      -0.990506      -1.174533      -0.548787      0.012504      0.133557      0.613988      0.516867      0.971369      1.382312      1.443235      1.048658      1.117891      1.179774      1.545813      1.497534      1.844544      1.881684      2.190306      2.162244      2.130204      1.802496      1.755029      2.093755      2.401552      2.429024      2.700459      2.680243      2.930351      3.151005      3.160881      2.944771      2.956901      3.168926      3.175347      2.966990      2.732602      2.717813      2.452933      2.473639      2.491471      2.506734      2.755569      2.745104      2.975266      3.180334      3.184062      2.981939      2.987199      3.186690      3.188362      2.991220      2.771292      2.764228      2.519704      2.530637      2.270216      2.254421      1.968177      1.990030      1.689234      1.366229      1.327651      1.659883      1.626493      1.284069      1.234964      1.588628      1.914387      2.214786      2.236047      1.943085      2.039368      2.304793      2.312831      2.051348      1.773816      1.479550      1.456553      1.756914      1.737395      1.430255      1.400283      1.714948      2.008978      2.025330      2.295157      2.283709      2.539763      2.547294      2.781384      2.776952      2.994162      3.189210      3.189355      2.996170      2.997373      3.188905      3.187959      2.997892      2.787183      2.784745      2.553424      2.558329      2.562168      2.565086      2.789798      2.788827      2.997836      3.186607      3.184930      2.997301      2.996376      3.182999      3.180882      2.995142      2.790139      2.790202      2.567216      2.568678      2.332634      2.083117      2.077205      2.329213      2.319466      2.324872      2.070062      2.061508      1.788385      1.800882      1.516991      1.499591      1.532037      1.811546      1.820592      1.544993      1.255810      1.238020      0.928463      0.952172      0.632933      0.296743      0.257225      0.602042      0.566938      0.212484      0.161957      0.527156      0.870556      1.194121      1.217564      0.901387      0.700692      1.063024      1.102226      0.751136      0.795909      1.136849      1.167343      0.835549      0.105033      0.482186      0.431476      0.041047      -0.030715      0.374428      0.310396      -0.111029      -1.060330      -0.566867      -0.467228      -0.937999      -0.828246      -0.377996      -0.298246      -0.729975      -1.687181      -1.192328      -1.312109      -1.831638      -1.992535      -1.445687      -1.594357      -2.171389      -0.989403      -1.441996      -1.557742      -1.085134      -0.642165      -0.227122      -0.163830      -0.563869      -0.494209      -0.107635      -0.057861      -0.432377      -0.828244      -0.904094      -1.338716      -1.246765      -1.165096      -1.092749      -0.701457      -0.760969      -0.377629      -0.013888      0.024852      -0.329285      -0.286722      0.058879      0.088665      -0.249374      -0.602821      -0.972584      -1.028845      -0.648966      -0.923241      -0.562409      -0.527180      -0.880162      -0.842761      -0.810516      -0.470347      -0.496639      -0.163745      -0.142624      0.173313      0.156635      0.137178      -0.188324      -0.216729      0.114636      0.432564      0.737927      0.751307      0.450126      0.465233      0.478141      0.772509      0.762765      1.049874      1.056995      1.332063      1.327093      1.321148      1.041445      1.031536      1.314087      1.006477      1.295964      1.305752      1.019952      0.722387      0.412263      0.388903      0.704427      0.683751      0.362130      0.331554      0.660039      0.972867      0.990871      1.284528      1.271224      1.556100      1.828218      1.834604      1.565575      1.573617      1.580405      1.844287      1.839911      2.095001      2.097456      2.339579      2.338637      2.337232      2.091875      2.087958      2.335267      2.569578      2.570015      2.788950      2.789695      2.993669      3.178637      3.176316      2.992023      2.990262      3.173968      3.171635      2.988438      2.786836      2.787976      2.570077      2.569842      2.569380      2.568756      2.784282      2.785588      2.986596      3.169354      3.167158      2.984778      2.983020      3.165078      3.163137      2.981354      2.781672      2.782964      2.568025      2.567235      2.340326      2.340454      2.101807      2.102540      1.854907      1.598009      1.594781      1.853073      1.850756      1.590850      1.586101      1.847862      2.099346      2.340146      2.340414      2.100768      2.103516      2.339440      2.339110      2.103601      1.858899      1.605723      1.604423      1.858280      1.857444      1.602748      1.600636      1.856340      2.103031      2.103340      2.339776      2.340085      2.566431      2.565649      2.779303      2.780442      2.979807      3.161361      3.159765      2.978404      2.977165      3.158370      3.157186      2.976107      2.777398      2.778282      2.564921      2.564275      2.563732      2.563310      2.776114      2.776671      2.975244      3.156226      3.155498      2.974588      2.974146      3.155010      3.154764      2.973923      2.775546      2.775737      2.563022      2.562875      2.338315      2.103602      2.103611      2.338403      2.338814      2.338573      2.103625      2.103628      1.859345      1.859650      1.607399      1.606701      1.607847      1.859839      1.859930      1.608066      1.348430      1.348050      1.080594      1.0