<VTKFile type="UnstructuredGrid" version="1.0" byte_order="LittleEndian" header_type="UInt64">
  <UnstructuredGrid>
    <Piece NumberOfPoints="40574" NumberOfCells="18683">
      <CellData Scalars="Scalars_">
        <DataArray type="Float32" Name="Scalars_" format="ascii">
     16.986177      16.986355      16.955359      16.955181      16.902058      16.836632      16.836821      16.902241      16.902607      16.837202      16.837772      16.903156      16.956253      16.955715      16.986708      16.987236      16.987944      16.988829      16.957865      16.956968      16.903891      16.838533      16.839487      16.904810      16.905914      16.840633      16.841972      16.907207      16.960201      16.958942      16.989891      16.991137      16.992561      16.994171      16.963274      16.961645      16.908686      16.843506      16.845236      16.910355      16.912216      16.847162      16.849287      16.914268      16.967094      16.965090      16.995964      16.997944      17.000113      17.002474      16.971678      16.969290      16.916515      16.851612      16.854141      16.918961      16.921602      16.856873      16.859812      16.924446      16.977039      16.974260      17.005026      17.007774      17.010721      17.013868      16.983202      16.980019      16.927492      16.862959      16.866316      16.930744      16.934206      16.869886      16.873671      16.937876      16.990183      16.986588      17.017218      17.020775      17.024540      17.028517      16.998005      16.993986      16.941759      16.877672      16.881895      16.945860      16.950178      16.886339      16.891006      16.954716      17.006689      17.002237      17.032707      17.037117      17.041746      17.046597      17.016258      17.011362      16.959478      16.895901      16.901024      16.964464      16.969679      16.906374      16.911957      16.975124      17.026731      17.021381      17.051674      17.056976      17.062510      17.068274      17.038124      17.032312      16.980799      16.917772      16.923820      16.986706      16.992847      16.930103      16.936617      16.999220      17.050447      17.044168      17.074272      17.080502      17.050268      16.988522      16.996771      17.058437      17.109005      17.138723      17.130650      17.100899      17.093008      17.122797      17.115168      17.085340      17.034563      17.042309      16.980463      16.972609      16.964966      17.027039      17.019739      16.957541      16.950336      16.943361      17.005829      17.012669      17.063707      17.056961      17.086967      17.093668      17.100601      17.070688      17.077900      17.107769      17.013802      17.005203      17.066803      17.075359      17.125837      17.117321      17.147011      17.155508      17.173088      17.164204      17.134548      17.143436      17.092981      17.084089      17.022551      17.031427      17.049473      17.040411      17.102016      17.111176      17.161701      17.152493      17.182152      17.191380      17.210264      17.200756      17.171043      17.180498      17.129770      17.120436      17.058582      17.067701      17.194170      17.127615      17.134800      17.202669      17.256863      17.288235      17.278578      17.247574      17.238131      17.268827      17.259022      17.228577      17.176374      17.185385      17.119923      17.111818      17.103382      17.167196      17.157902      17.094688      17.085806      17.076792      17.139149      17.148539      17.199654      17.190044      17.219887      17.229597      17.239376      17.209301      17.218954      17.249193      17.147243      17.141380      17.210814      17.218531      17.274778      17.265947      17.297758      17.307106      17.325102      17.316236      17.283300      17.291456      17.232368      17.225744      17.152271      17.156336      17.161018      17.159300      17.238317      17.243504      17.306433      17.299187      17.333658      17.341856      17.356993      17.349649      17.313131      17.319225      17.251205      17.247829      17.161343      17.160112      15.595489      15.347470      15.194678      15.460854      15.687286      15.891818      15.992435      15.805090      15.903332      16.075617      16.144060      15.984999      15.804811      15.709117      15.478441      15.590510      15.322179      15.188408      14.807206      14.972457      14.506801      13.884650      13.601781      14.294392      14.057673      13.289582      12.947101      13.794904      14.410203      14.620522      15.034772      14.858673      14.657165      14.426921      13.908798      14.173838      13.504274      12.573654      12.168747      13.183841      12.831461      11.731812      11.261664      12.444705      13.281149      13.612241      14.164198      13.864808      14.288774      14.629416      14.891361      14.568647      14.809518      15.016673      15.301594      15.113441      15.378201      15.546384      15.770578      15.624966      15.450573      15.177794      14.939322      15.242236      15.541017      15.829896      15.969244      15.715262      15.860872      15.982116      16.182262      16.085585      16.295946      16.369421      16.541437      16.488590      16.424576      16.207317      16.101063      16.347668      16.565498      16.617945      16.786697      16.753534      16.913361      17.047930      17.056261      16.932058      16.946787      17.062082      17.065653      16.957987      16.835464      16.696873      16.661356      16.813766      16.865337      16.748220      16.725521      16.852455      16.966068      17.067226      17.067038      16.971413      16.974369      17.065308      17.062235      16.975252      16.880884      16.874651      16.765783      16.778933      16.669050      16.550982      16.519163      16.647345      16.584642      16.619553      16.479275      16.429903      16.262173      16.327812      16.165668      16.082666      16.233812      16.381329      16.424564      16.289389      16.334347      16.459099      16.486279      16.370340      16.398773      16.420837      16.522997      16.507252      16.609350      16.619459      16.711239      16.706032      16.697668      16.595104      16.575947      16.685564      16.788301      16.794445      16.885782      16.884466      16.974352      17.058008      17.052794      16.971920      16.968191      17.046745      17.039999      16.963366      16.882931      16.798939      16.797848      16.885172      16.874577      16.795593      16.798080      16.879322      16.957628      17.032679      17.024895      16.951136      16.944029      17.016745      17.008310      16.936432      16.862438      16.868891      16.791756      16.786804      16.709534      16.630322      16.631073      16.712595      16.713791      16.714119      16.629799      16.626087      16.534348      16.542009      16.449738      16.437540      16.458151      16.546585      16.548584      16.463392      16.373312      16.276157      16.262377      16.364220      16.333929      16.351328      16.244123      16.220610      16.092970      16.124020      15.985040      15.944141      16.018866      16.148985      16.168726      16.046537      15.903673      15.865069      15.678901      15.732827      15.525673      15.273705      15.168874      15.450312      15.362913      15.047901      14.909073      15.262157      15.542130      15.615704      15.819044      15.764609      15.700653      15.625929      15.358924      15.456975      15.146646      14.750612      14.570711      15.014911      14.865419      14.367565      14.139424      14.696591      15.118289      15.246547      15.539032      15.438378      15.686190      15.767648      15.952423      15.885175      16.052614      16.200048      16.245520      16.108313      16.153900      16.282103      16.311184      16.190901      16.054834      15.895117      15.836751      16.008442      16.212475      16.121899      16.117403      16.211658      16.298468      16.379940      16.376139      16.296619      16.293400      16.371267      16.365517      16.289042      16.209139      16.211546      16.124151      16.124477      16.033476      16.029352      15.925035      15.934361      15.825296      15.704573      15.679145      15.808990      15.788147      15.647621      15.609118      15.762108      15.895742      15.912329      16.022690      16.013100      16.000137      15.983306      15.848639      15.874720      15.730145      15.562650      15.507129      15.691451      15.645138      15.441357      15.364023      15.590232      15.778493      15.816817      15.962048      15.935737      16.068857      16.183983      16.195391      16.086527      16.100159      16.110294      16.208786      16.203501      16.296949      16.298681      16.382439      16.383368      16.382414      16.292910      16.286144      16.379206      16.465986      16.548441      16.546522      16.466368      16.464912      16.461937      16.538557      16.543139      16.619141      16.613289      16.686808      16.693661      16.699852      16.624081      16.627892      16.705208      16.780943      16.774347      16.847815      16.855370      16.928452      16.999672      16.990894      16.920181      16.911705      16.982035      16.973145      16.903090      16.831684      16.759544      16.767172      16.839888      16.814764      16.743361      16.751575      16.823286      16.894398      16.964266      16.955441      16.885681      16.876986      16.946697      16.938065      16.868347      16.797586      16.806181      16.734980      16.726501      16.655327      16.584005      16.591942      16.663597      16.679432      16.671661      16.599545      16.606705      16.533003      16.526665      16.452461      16.457710      16.446384      16.519705      16.512260      16.439644      16.432381      16.504450      16.496370      16.424715      16.416750      16.408571      16.479727      16.488104      16.559076      16.550623      16.621546      16.629988      16.638464      16.567499      16.575830      16.646929      16.717983      16.709475      16.780539      16.789028      16.859802      16.929567      16.921225      16.851374      16.843088      16.913054      16.905067      16.834963      16.763893      16.692648      16.701017      16.772150      16.747847      16.676279      16.684393      16.755785      16.827017      16.897280      16.889698      16.819260      16.811707      16.882332      16.875185      16.804361      16.732536      16.740093      16.668327      16.660553      16.588789      16.517347      16.525515      16.596771      16.613174      16.604908      16.533804      16.542185      16.471296      16.462864      16.391863      16.400255      16.383450      16.454473      16.446163      16.375061      16.303783      16.232012      16.240232      16.312155      16.328703      16.320480      16.248316      16.256191      16.182169      16.174889      16.099644      16.105999      16.092749      16.167259      16.159369      16.085428      16.009726      16.016165      15.936948      15.931773      15.851089      15.767233      15.768420      15.854536      15.856676      15.767825      15.765113      15.857258      15.944310      15.941191      16.021961      16.026970      16.031019      16.033926      15.946282      15.946090      15.855994      15.759906      15.751771      15.852558      15.846582      15.740219      15.724695      15.837651      15.940752      15.944608      16.035471      16.035412      16.123161      16.120449      16.200800      16.205488      16.283739      16.359058      16.352032      16.277666      16.270967      16.344564      16.336758      16.263773      16.188995      16.111689      16.116562      16.195251      13.206297      12.982211      12.713663      12.961386      13.207524      13.444478      13.645277      13.429447      13.618356      13.815870      13.960195      13.778506      13.592008      13.414946      13.210988      13.405169      13.569351      13.741648      13.867553      13.707598      13.823483      13.920134      14.060760      13.972973      14.122160      14.201003      14.338712      14.268456      14.183591      14.027253      13.913688      14.081740      14.243681      14.398819      14.479950      14.334720      14.410269      14.472519      14.601807      14.546935      14.678483      14.726525      14.846960      14.805319      14.753709      14.619422      14.547457      14.690391      14.613347      14.520242      14.355767      14.460409      14.301205      14.134645      14.004745      14.184425      14.045410      13.850721      13.668877      13.880659      14.081715      14.274635      14.408376      14.230641      14.747893      14.580424      14.461732      14.644362      14.822650      14.995615      15.068906      14.910952      14.983829      15.129091      15.178093      15.043549      14.904450      14.833727      14.679260      14.761115      14.828471      14.962296      15.009185      14.883468      14.927948      14.963495      15.076456      15.046765      15.161949      15.186007      15.292147      15.273452      15.248944      15.131047      15.092062      15.217567      15.338346      15.453841      15.471484      15.362555      15.381063      15.394747      15.493635      15.484512      15.583585      15.588678      15.679843      15.678191      15.674165      15.575406      15.563583      15.667329      15.657184      15.643162      15.526323      15.547470      15.430761      15.307420      15.268596      15.401299      15.364362      15.220508      15.161579      15.318692      15.465405      15.600795      15.624612      15.499293      14.603750      14.253551      14.014676      14.415444      14.777443      15.094093      15.200847      14.921264      15.044087      15.291956      15.369239      15.148448      14.901037      14.630302      14.457247      14.764462      15.113804      14.900153      14.776750      15.016567      15.236632      15.434350      15.488786      15.310692      15.372456      15.533893      15.570871      15.423548      15.262850      15.089992      15.003650      15.195182      14.150989      14.319863      14.520133      14.371741      14.588863      14.716299      14.906997      14.800486      14.521522      14.673125      14.436841      14.256206      13.985888      14.195190      13.950706      13.713974      13.107359      13.435037      13.738574      13.447248      13.789965      14.042337      14.341787      14.129492      13.586436      13.879602      13.493093      13.144947      12.704458      13.105103      12.723560      12.275358      11.601143      11.198968      10.598941      11.038489      11.453079      11.860496      12.350411      11.980152      12.435440      12.771586      13.132536      12.827399      12.512220      12.177789      11.722607      12.089640      13.189497      12.912097      12.571976      12.876514      13.163743      13.440929      13.703613      13.451440      13.696736      13.926662      14.115435      13.905189      13.686189      13.455038      13.204521      13.457494      12.033497      12.399562      12.675002      12.341385      12.645150      12.947844      13.209062      12.934115      12.243410      12.614213      12.293691      11.887225      11.506737      11.954233      11.608427      11.116704      9.900079      10.550134      10.991644      10.401386      10.882298      11.419092      11.815269      11.322903      10.116162      10.759044      10.269669      9.574056      8.964624      9.728247      9.157609      8.313718      0.691359      -1.070269      -2.968616      -0.875110      0.519790      1.225929      2.774536      1.976549      3.358622      4.179188      5.452386      4.649189      3.584791      2.184789      0.681280      2.289618      3.757467      4.879811      6.064558      5.088296      6.286925      7.359589      8.103372      7.138258      7.907311      8.788640      9.386600      8.562733      7.637132      6.925179      5.839234      6.602656      7.266565      7.865170      8.815711      8.256528      9.136282      9.914225      10.392887      9.655120      10.146332      10.845063      11.292462      10.636111      9.880477      9.346642      8.435509      9.013957      8.024487      6.899755      6.237796      7.402523      6.794292      6.158497      4.925356      5.594531      4.258384      3.561754      2.065039      2.779714      3.479885      4.195549      5.627466      4.932546      7.422329      6.445292      5.076991      6.169580      7.422839      8.769120      9.696442      8.524936      9.492592      10.510868      11.222825      10.338322      9.489381      8.524449      7.652511      8.712763      9.639910      10.330485      11.060701      10.447364      11.147905      11.753532      12.236710      11.692297      12.263529      12.737918      13.243619      12.844049      12.379883      11.712418      11.074358      11.842556      12.597499      13.303626      13.644607      13.033445      13.410542      13.735551      14.195704      13.940300      14.415414      14.609839      14.969712      14.825568      14.659377      14.190889      13.932774      14.468741      14.251181      14.004191      13.301029      13.637407      12.912021      12.095409      11.519415      12.464170      11.954268      10.861379      10.112910      11.376434      12.490352      13.412308      13.725329      12.919882      5.010960      1.618593      -0.195415      3.740566      7.176988      9.611583      10.192801      7.990454      8.781084      10.754157      11.287609      9.532306      7.280532      4.718318      3.247709      6.192180      9.179077      7.240208      6.045654      8.275606      10.234361      11.787695      12.251125      10.882127      11.473655      12.676347      13.063147      12.009165      10.724878      9.265512      8.310725      9.994092      1.800286      3.533405      4.753171      3.161123      4.765446      6.173773      7.718626      6.535295      3.738822      5.210738      3.185923      1.423357      -0.586588      1.383428      -0.136821      -2.293007      -7.329378      -4.684577      -2.749938      -5.097685      -2.706285      -0.535133      2.117243      0.350316      -3.531630      -1.545662      -5.116877      -7.816686      -10.205660      -7.602847      -10.246188      -13.451698      -12.878108      -24.779711      -16.597883      -11.168257      -15.152872      -11.568094      -9.860013      -7.972426      -8.505010      -5.799098      -5.889627      -6.990660      -6.688942      -7.902222      -9.638509      -2.558745      -3.141808      -4.988543      -4.667068      -3.794006      -3.370044      -1.176318      -1.775557      0.121382      0.805836      2.592244      1.875918      1.153761      0.437541      -1.308696      -0.623636      -7.249378      -5.021745      -2.481395      -4.074879      -2.486006      -0.983232      -0.488348      -2.409440      -7.268749      -4.617456      -3.912392      -5.135657      -6.841819      -5.572511      -9.698017      -12.471464      -20.082932      -15.791980      -7.667455      -5.939737      -10.667202      -15.401420      -25.494928      -21.231308      -31.567390      -33.203613      -28.910988      -24.437906      -27.844561      15.217652      15.301234      15.294396      15.211240      15.126572      15.040317      15.045630      15.132478      15.137664      15.050070      15.053380      15.141906      15.228559      15.223491      15.307633      15.313423      15.396584      15.390176      15.471207      15.478127      15.558146      15.636753      15.629138      15.550825      15.543302      15.621426      15.613696      15.535676      15.456522      15.463965      15.383309      15.376127      15.368755      15.361300      15.441429      15.448979      15.528033      15.606020      15.598458      15.520449      15.512986      15.591063      15.583883      15.505704      15.426606      15.433949      15.353852      15.346495      15.265278      15.182876      15.190122      15.272605      15.287265      15.279964      15.197339      15.204420      15.120138      15.113340      15.027898      15.034343      15.021142      15.106324      15.099210      15.014214      14.927828      14.840009      14.846395      14.934514      14.946969      14.940947      14.852438      14.857965      14.767301      14.762344      14.670670      14.674983      14.665602      14.756758      14.750731      14.659990      14.567813      14.572960      14.478901      14.474257      14.379407      14.283375      14.286972      14.383528      14.386762      14.289571      14.290874      14.388835      14.485626      14.581059      14.577453      14.482775      14.487036      14.584493      14.583509      14.487161      14.389427      14.290539      14.288162      14.388167      14.384622      14.283278      14.275346      14.378291      14.480160      14.484856      14.583648      14.580552      14.679167      14.775810      14.775981      14.680744      14.680326      14.678296      14.771404      14.774397      14.866637      14.862775      14.952402      14.957037      14.960630      14.869280      14.870391      14.962900      14.963517      14.869606      14.866501      14.962101      14.951315      14.958206      14.860583      14.851281      14.748487      14.760406      14.657669      14.642911      14.668185      14.768528      14.773481      14.675152      14.574721      14.565587      14.460998      14.472413      14.368591      14.263734      14.247710      14.354845      14.336267      14.226423      14.198883      14.311946      14.424162      14.534686      14.552496      14.445191      14.362412      14.481247      14.511276      14.396942      14.280824      14.163939      14.120261      14.241673      14.193080      14.066304      14.000282      14.133405      14.266049      14.319280      14.443419      14.396431      14.523377      14.646325      14.682020      14.564503      14.597331      14.623108      14.732038      14.710211      14.819752      14.837929      14.940825      14.926031      14.906116      14.795850      14.765179      14.880129      14.991472      15.013046      15.116858      15.099472      15.204284      15.305936      15.315599      15.217691      15.227011      15.321805      15.325127      15.232911      15.138180      15.040858      15.029222      15.129505      15.048692      15.143538      15.146142      15.053357      15.055394      15.055269      15.144943      15.146473      15.235434      15.232628      15.318408      15.322360      15.325012      15.236666      15.235966      15.326055      15.413863      15.499438      15.495441      15.411249      15.407330      15.402366      15.484583      15.490417      15.571708      15.565151      15.644177      15.651307      15.658016      15.577664      15.582842      15.664165      15.590015      15.674106      15.669592      15.587038      15.502155      15.414865      15.413903      15.503302      15.502537      15.410563      15.404364      15.499467      15.591177      15.591500      15.677491      15.679500      15.764552      15.760634      15.841139      15.846559      15.925838      16.002775      15.995423      15.919290      15.912258      15.987773      15.979911      15.904858      15.828293      15.749948      15.755702      15.835000      15.743542      15.821145      15.813674      15.736631      15.729343      15.721791      15.798142      15.805977      15.881388      15.873400      15.947746      15.955776      15.963849      15.889340      15.897189      15.971913      16.045576      16.118437      16.110323      16.037432      16.029352      16.021376      16.094484      16.102329      16.174921      16.167267      16.239908      16.247330      16.254953      16.182758      16.190752      16.262766      16.207106      16.278862      16.270742      16.198879      16.126633      16.053740      16.061869      16.134874      16.143112      16.069906      16.077785      16.151297      16.223717      16.215399      16.287098      16.295418      16.366737      16.437963      16.429901      16.358513      16.350416      16.342470      16.414274      16.421999      16.493797      16.486322      16.558723      16.565933      16.573355      16.501469      16.509325      16.580978      16.652971      16.645594      16.718054      16.725187      16.797237      16.868265      16.861572      16.790335      16.783659      16.855110      16.848881      16.777216      16.704456      16.711142      16.638430      16.631485      16.624769      16.618284      16.691782      16.698002      16.771004      16.842884      16.837122      16.765026      16.759283      16.831593      16.826294      16.753775      16.680048      16.685797      16.612034      16.606024      16.532150      16.538443      16.465197      16.458616      16.385448      16.312586      16.319740      16.392321      16.399422      16.327116      16.334698      16.406744      16.479057      16.551733      16.544971      16.472013      16.440336      16.514736      16.509424      16.434744      16.360403      16.286366      16.292543      16.366285      16.372425      16.298979      16.305662      16.378815      16.452276      16.446180      16.520294      16.526100      16.600252      16.594723      16.669266      16.674538      16.748503      16.821228      16.816393      16.743464      16.738657      16.811785      16.807402      16.734081      16.659435      16.664232      16.589436      16.584391      16.579590      16.575033      16.650551      16.654875      16.729736      16.803246      16.799311      16.725622      16.721735      16.795597      16.792103      16.718073      16.642607      16.646461      16.570719      16.566648      16.490688      16.414949      16.419508      16.494995      16.504364      16.499554      16.424328      16.429407      16.354780      16.349421      16.274807      16.280453      16.269434      16.344328      16.339506      16.264339      16.189383      16.194754      16.120184      16.114536      16.039692      15.964726      15.970910      16.045612      16.051825      15.977385      15.984136      16.058317      16.132339      16.206343      16.200409      16.126122      16.159813      16.232708      16.225740      16.152578      16.145580      16.219017      16.212547      16.138830      15.991146      16.065077      16.072090      15.998398      16.005869      16.079342      16.086813      16.013538      15.865434      15.939805      15.931993      15.857542      15.849771      15.924343      15.916889      15.842158      15.690699      15.766808      15.774524      15.698456      15.706268      15.782353      15.790245      15.714071      15.751890      15.675567      15.683052      15.759251      15.834741      15.909657      15.902671      15.827549      15.820611      15.895952      15.889520      15.813950      15.737897      15.744762      15.668285      15.661245      15.654480      15.648020      15.725058      15.731320      15.807587      15.883391      15.877581      15.801542      15.795833      15.872104      15.866970      15.790473      15.713554      15.636113      15.641890      15.719130      15.630711      15.708350      15.703530      15.625700      15.621098      15.616918      15.695098      15.699109      15.776626      15.772790      15.850084      15.853741      15.857780      15.780858      15.785478      15.862192      15.938595      16.014790      16.010801      15.934394      15.930552      15.927078      16.003868      16.007160      16.083662      16.080551      16.157225      16.160158      16.163406      16.087107      16.090881      16.166971      16.099401      16.175028      16.170847      16.094980      16.019117      15.943149      15.948049      16.023777      16.028767      15.953284      15.958847      16.034073      16.109186      16.104139      16.179514      16.184301      16.259527      16.334955      16.330681      16.254999      16.250759      16.246811      16.322960      16.326681      16.402853      16.399349      16.475985      16.479280      16.482830      16.406620      16.410654      16.486633      16.562819      16.559233      16.635593      16.638985      16.714636      16.788826      16.785763      16.711422      16.708427      16.782913      16.780273      16.705656      16.629505      16.632435      16.555887      16.552782      16.549917      16.547295      16.624334      16.626806      16.703100      16.777845      16.775625      16.700764      16.698643      16.773611      16.771801      16.696737      16.620071      16.622089      16.544910      16.542765      16.465328      16.467613      16.390442      16.388008      16.310890      16.233978      16.236738      16.313482      16.316360      16.239799      16.243156      16.319519      16.396112      16.472940      16.470150      16.393143      16.382320      16.459999      16.458729      16.380966      16.303379      16.225975      16.227518      16.304825      16.306561      16.229366      16.231522      16.308582      16.385843      16.383947      16.461521      16.463299      16.540859      16.539192      16.616711      16.618279      16.695045      16.770197      16.768795      16.693567      16.692303      16.767595      16.766596      16.691248      16.614252      16.615370      16.537764      16.536573      16.535622      16.534908      16.612688      16.613358      16.690407      16.765799      16.765202      16.689775      16.689354      16.764803      16.764603      16.689144      16.612017      16.612240      16.534431      16.534193      16.456188      16.378252      16.378525      16.456444      16.457712      16.456951      16.379066      16.379881      16.302221      16.301352      16.223812      16.224739      16.223192      16.300772      16.300482      16.222883      16.145414      16.145744      16.068354      16.068003      15.990566      15.913013      15.913407      15.990938 