<VTKFile type="UnstructuredGrid" version="1.0" byte_order="LittleEndian" header_type="UInt64">
  <UnstructuredGrid>
    <Piece NumberOfPoints="40574" NumberOfCells="18683">
      <CellData Scalars="Scalars_">
        <DataArray type="Float32" Name="Scalars_" format="ascii">
     -10.178420      -10.179420      -10.263328      -10.262247      -10.424577      -10.658101      -10.659595      -10.425819      -10.428320      -10.662599      -10.667148      -10.432109      -10.268800      -10.265502      -10.181435      -10.184492      -10.188633      -10.193913      -10.278956      -10.273266      -10.437235      -10.673295      -10.681110      -10.443761      -10.451766      -10.690683      -10.702120      -10.461347      -10.294325      -10.285947      -10.200405      -10.208194      -10.217380      -10.228079      -10.315683      -10.304197      -10.472616      -10.715547      -10.731109      -10.485706      -10.500764      -10.748972      -10.769322      -10.517960      -10.344071      -10.328923      -10.240424      -10.254566      -10.270672      -10.288926      -10.380808      -10.361302      -10.537478      -10.792367      -10.818336      -10.559528      -10.584337      -10.847480      -10.880075      -10.612156      -10.427513      -10.402801      -10.309533      -10.332717      -10.358723      -10.387815      -10.486134      -10.455199      -10.643256      -10.916424      -10.956848      -10.677933      -10.716507      -11.001702      -11.051362      -10.759322      -10.558970      -10.520617      -10.420281      -10.456434      -10.496609      -10.541164      -10.648702      -10.601541      -10.806751      -11.106236      -11.166756      -10.859190      -10.917065      -11.233386      -11.306621      -10.980827      -10.758416      -10.700850      -10.590487      -10.644990      -10.705112      -10.771320      -10.891635      -10.821850      -11.050961      -11.386981      -11.475022      -11.127976      -11.212416      -11.571328      -11.676512      -11.304848      -11.052333      -10.968283      -10.844111      -10.924009      -11.011568      -11.107369      -11.244948      -11.144356      -11.405873      -11.791218      -11.916120      -11.516123      -11.636252      -12.051919      -12.199343      -11.766947      -11.474378      -11.354737      -11.212024      -11.326171      -13.040004      -13.622380      -13.891296      -13.282427      -12.872372      -12.665518      -12.449703      -12.647677      -12.438813      -12.249253      -12.063391      -12.244990      -12.604566      -12.814318      -13.371517      -13.137884      -12.920653      -12.409944      -12.229651      -12.718998      -12.532099      -12.359145      -11.908919      -12.062901      -11.745959      -11.604549      -11.450474      -11.585624      -11.732335      -11.899334      -12.065423      -11.891339      -14.486506      -14.179075      -13.542385      -13.820659      -13.372374      -13.113679      -12.897477      -13.146347      -13.697815      -13.412884      -13.649213      -13.944926      -14.435166      -14.118010      -14.814353      -15.163341      -15.927403      -15.534149      -14.772819      -15.131608      -14.595706      -14.260207      -14.001836      -14.325603      -15.034712      -14.669715      -14.952018      -15.329673      -15.914853      -15.512115      -16.343664      -16.783422      -19.380695      -20.541142      -21.174829      -19.968407      -19.153545      -18.742407      -18.201801      -18.597111      -18.062759      -17.682938      -17.186127      -17.550819      -18.273914      -18.815748      -19.931223      -19.345455      -18.784090      -17.755413      -17.260342      -18.247253      -17.734953      -17.247080      -16.340256      -16.788670      -16.150745      -15.729126      -15.421060      -15.829139      -16.259239      -16.594807      -17.061480      -16.711544      -22.511324      -21.831772      -20.578390      -21.210024      -20.330677      -19.731602      -19.304306      -19.886911      -21.111176      -20.489492      -20.950026      -21.588766      -22.535040      -21.862541      -23.212700      -23.934977      -25.437840      -24.677090      -23.226477      -23.935669      -22.920177      -22.245871      -21.750944      -22.407648      -23.766567      -23.079996      -23.610384      -24.315060      -25.401920      -24.661301      -26.215881      -27.009729      -60.983295      -64.990936      -66.256958      -62.386589      -58.156654      -53.727123      -52.219864      -56.669460      -55.155041      -50.707542      -49.198124      -53.622452      -58.035511      -59.530182      -63.657539      -62.262505      -66.142670      -67.390862      -70.643242      -69.566536      -72.489265      -74.920074      -75.656479      -73.390755      -74.214470      -76.319389      -76.910286      -74.961510      -72.559525      -71.640999      -68.564774      -69.661690      -70.679756      -71.617737      -74.159584      -73.398941      -75.632935      -77.430267      -77.879860      -76.229584      -76.751961      -78.258919      -78.566345      -77.200035      -75.445518      -74.841743      -72.474831      -73.250389      -70.567070      -67.365990      -66.227417      -69.608505      -68.569038      -67.450897      -63.732586      -65.014725      -61.014030      -59.607697      -55.220863      -56.692356      -58.132824      -62.367706      -63.661522      -59.533657      -55.129143      -50.633221      -49.208187      -53.684738      -52.222305      -50.750076      -46.364513      -47.783073      -43.523304      -42.194401      -38.324425      -39.546104      -40.788841      -44.868713      -46.225838      -42.049290      -38.200081      -37.047455      -33.692093      -34.738167      -31.701376      -29.117208      -28.253696      -30.753048      -29.822971      -27.407114      -26.579006      -28.912809      -31.660107      -34.803650      -35.914505      -32.665436      -29.719879      -32.656239      -33.716976      -30.677776      -28.024029      -25.770758      -24.983603      -27.157927      -26.315620      -24.218622      -23.476755      -25.498074      -27.882078      -28.787636      -31.622921      -30.618235      -33.699310      -37.118984      -38.345715      -34.812283      -37.126675      -35.955288      -39.602287      -40.886196      -44.958508      -43.570389      -47.807106      -49.275902      -46.350349      -42.204788      -40.865658      -44.911564      -43.495918      -39.556290      -38.279377      -42.107815      -40.750919      -39.428211      -35.830990      -37.037060      -33.636124      -32.545109      -29.570118      -30.552429      -31.568476      -34.762768      -35.924133      -32.617695      -29.643171      -28.698505      -26.154274      -27.004061      -24.706104      -22.758804      -22.065430      -23.940378      -23.201435      -21.397163      -20.754408      -22.489683      -24.541443      -26.902607      -27.784840      -25.333265      -23.046364      -25.233482      -26.052101      -23.779087      -21.805405      -20.137436      -19.546404      -21.148771      -20.519835      -18.981348      -18.442198      -19.918543      -21.669930      -22.343328      -24.446798      -23.691988      -25.983343      -28.546602      -29.490993      -26.828520      -28.621914      -27.708025      -30.472252      -31.490355      -34.662392      -33.532124      -36.894222      -38.142048      -35.686050      -32.440739      -31.388517      -34.518433      -37.944069      -41.663612      -43.069344      -39.231659      -41.924385      -40.559120      -44.510483      -45.983116      -50.255669      -48.700764      -53.037968      -54.632061      -51.443123      -47.164715      -45.653885      -49.856304      -54.166519      -55.782440      -60.023418      -58.437733      -62.505135      -66.224480      -67.586441      -64.001488      -65.435677      -68.872269      -70.079330      -66.801567      -63.064159      -61.568569      -57.383118      -58.958565      -60.499069      -61.995480      -65.876244      -64.502274      -68.094490      -71.206322      -72.253006      -69.311211      -70.449722      -73.219994      -74.108490      -71.509102      -68.411789      -67.180756      -63.439514      -64.823936      -60.812653      -59.315784      -54.957314      -56.508152      -52.080624      -47.698948      -46.216614      -50.538136      -49.002995      -44.756901      -43.324776      -47.482494      -51.822186      -56.216103      -57.780525      -53.392292      -37.363560      -40.891376      -42.292892      -38.638294      -35.252533      -32.141563      -31.110531      -34.103031      -32.998791      -30.122236      -29.176149      -31.939627      -34.954239      -36.135357      -39.535042      -38.225796      -41.748283      -43.185772      -47.050320      -45.494942      -49.409222      -53.399952      -55.100029      -51.057487      -52.723434      -56.794876      -58.472702      -54.397213      -50.256355      -48.639755      -44.666656      -46.186893      -47.741444      -49.324245      -53.538170      -51.892147      -56.068207      -60.121811      -61.731052      -57.725376      -59.357624      -63.290245      -64.790504      -60.954208      -56.821365      -55.184673      -50.928207      -52.545261      -48.285568      -44.173733      -42.728798      -46.738098      -45.220139      -43.736958      -39.958546      -41.322777      -37.686699      -36.447220      -33.215721      -34.333210      -35.494015      -38.970181      -40.296413      -36.697842      -33.391914      -30.375534      -29.401682      -32.306747      -31.262943      -30.260319      -27.570230      -28.466705      -25.932898      -25.133713      -22.941320      -23.651699      -24.395231      -26.767839      -27.638964      -25.172331      -22.968899      -22.277285      -20.411362      -21.026020      -19.344740      -17.928768      -17.440783      -18.798174      -18.278500      -16.977865      -16.539562      -17.785288      -19.268394      -20.987082      -21.616814      -19.825623      -18.237453      -19.817852      -20.387611      -18.739191      -17.318029      -16.125334      -15.734577      -16.876146      -16.458994      -15.366629      -15.020771      -16.065870      -17.313822      -17.762558      -19.277199      -18.764978      -20.420696      -22.283720      -22.945440      -21.003933      -22.263609      -21.618017      -23.640574      -24.369793      -26.711786      -25.890818      -28.377113      -29.298532      -27.495489      -25.106703      -24.358763      -26.653000      -25.848928      -23.646271      -22.968452      -25.082497      -24.352882      -23.659225      -21.713560      -22.324497      -20.491650      -19.955986      -18.381262      -18.848696      -19.343859      -21.057606      -21.654696      -19.867592      -18.280476      -17.822918      -16.491842      -16.890511      -15.696025      -14.696246      -14.392260      -15.348670      -15.022979      -14.107990      -13.842600      -14.718102      -15.765120      -16.985357      -17.391495      -16.116995      -15.126749      -16.245407      -16.603630      -15.435337      -14.433172      -13.595237      -13.365047      -14.167307      -13.919622      -13.151174      -12.952770      -13.689234      -14.569521      -14.838449      -15.909767      -15.595775      -16.770926      -18.098406      -18.521894      -17.136452      -17.940683      -17.526054      -18.972023      -19.449745      -21.134762      -20.587196      -22.376183      -23.000633      -21.784925      -20.069931      -19.582006      -21.225893      -23.034758      -25.014011      -25.737173      -23.671991      -25.053503      -24.344574      -26.499130      -27.300907      -29.751469      -28.847649      -31.398218      -32.413822      -30.430227      -27.987446      -27.169840      -29.508924      -32.037579      -33.072163      -35.916882      -34.760040      -37.675751      -40.775600      -42.192482      -38.961578      -40.303951      -43.665176      -45.190350      -41.701572      -38.393776      -37.128143      -34.157562      -35.294395      -36.483017      -37.723415      -41.085365      -39.713234      -43.152325      -46.763481      -48.378788      -44.653160      -46.199966      -50.029140      -51.706085      -47.787479      -43.979385      -42.508316      -39.015167      -40.357315      -36.964920      -35.753155      -32.733658      -33.820385      -30.925140      -28.271624      -27.407928      -29.954771      -29.027819      -26.584257      -25.799751      -28.143492      -30.699860      -33.477821      -34.590813      -31.693676      -81.527748      -82.025528      -82.410164      -81.960800      -81.433937      -80.812859      -80.262909      -80.946175      -80.406754      -79.656166      -78.988716      -79.812141      -80.517120      -81.047562      -81.597710      -81.123993      -80.601410      -79.933029      -79.291687      -80.026726      -79.396523      -78.707260      -77.822235      -78.589340      -77.658783      -76.804794      -75.630814      -76.581345      -77.455353      -78.442093      -79.158562      -78.256477      -77.201363      -75.963722      -74.961304      -76.305084      -75.330055      -74.273178      -72.702675      -73.874962      -72.184402      -70.889809      -68.807991      -70.227570      -71.560837      -73.391151      -74.510361      -72.805641      -73.961761      -75.030548      -76.494347      -75.543808      -76.885262      -78.022606      -78.772896      -77.729630      -78.500938      -79.456451      -80.077461      -79.203468      -78.161606      -76.917183      -76.014557      -77.365585      -72.502777      -74.407677      -75.430321      -73.657433      -71.554916      -69.085716      -67.651070      -70.260307      -68.877945      -66.135788      -64.546562      -67.410873      -69.926277      -71.259048      -73.298630      -72.101089      -70.814301      -68.506363      -67.003326      -69.439194      -67.978775      -66.438370      -63.776127      -65.423607      -62.566269      -60.836979      -57.661362      -59.436096      -61.184586      -64.246155      -65.864380      -62.892426      -59.624065      -56.125015      -54.361145      -57.864849      -56.089737      -54.313309      -50.872616      -52.606102      -49.074440      -47.422523      -44.037537      -45.579933      -47.172874      -50.765633      -52.486519      -48.810162      -50.484138      -52.185703      -55.972141      -54.226082      -57.884121      -61.352985      -63.038013      -59.624508      -61.332489      -64.666969      -66.229515      -62.995232      -59.431606      -55.628880      -53.904449      -57.711735      -72.645775      -74.877090      -75.776115      -73.693939      -71.186676      -68.218903      -66.855377      -69.979782      -68.689682      -65.416664      -63.908234      -67.318260      -70.295464      -72.833313      -73.897064      -71.513268      -67.606606      -70.447502      -71.683792      -68.992638      -65.869080      -62.337345      -60.712963      -64.347557      -62.761051      -59.045563      -57.346760      -61.118771      -64.601273      -67.717438      -69.124725      -66.140953      -77.229248      -76.369606      -74.724442      -75.706360      -73.878166      -72.760681      -70.435265      -71.697372      -73.958443      -72.871468      -74.909225      -75.856628      -77.428680      -76.606506      -78.013290      -78.725914      -79.953033      -79.371208      -78.176888      -78.855148      -77.514435      -76.723785      -74.960350      -75.879997      -77.486145      -76.720734      -78.232437      -78.881531      -80.016785      -79.467278      -80.474899      -80.939850      -82.520355      -82.970276      -83.206970      -82.801430      -82.302841      -81.690971      -81.297600      -81.970116      -81.589882      -80.852333      -80.352646      -81.160065      -81.825386      -82.374283      -82.693138      -82.195549      -80.939964      -81.603958      -82.011963      -81.407730      -80.678101      -79.795471      -79.177330      -80.140930      -79.545074      -78.494339      -77.742378      -78.886673      -79.841469      -80.639938      -81.147629      -80.419029      -83.059166      -82.754021      -82.349533      -82.696465      -82.267174      -81.873291      -81.309662      -81.756668      -82.512955      -82.156891      -82.618156      -82.928490      -83.273216      -83.003754      -83.327370      -83.560013      -83.922302      -83.758125      -83.506332      -83.704178      -83.434296      -83.200035      -82.827110      -83.101219      -83.534531      -83.336693      -83.632378      -83.794991      -83.996353      -83.867439      -84.052658      -84.148766      -83.853470      -83.664291      -83.366112      -83.660255      -83.759224      -83.668533      -83.820480      -83.905464      -84.008347      -83.913040      -83.954460      -84.068947      -84.099197      -83.999199      -83.888817      -84.050667      -84.158081      -84.155960      -84.172020      -84.217361      -84.233322      -84.209579      -84.090675      -84.149658      -84.014389      -83.922394      -83.695206      -83.818657      -83.904175      -84.070305      -84.089005      -83.950256      -83.755196      -83.500343      -83.389908      -83.678970      -83.561485      -83.403992      -83.039848      -83.236076      -82.831078      -82.589531      -82.034439      -82.329369      -82.576454      -83.027679      -83.178780      -82.775620      -82.925964      -83.025612      -83.337875      -83.282967      -83.565460      -83.788025      -83.774368      -83.582283      -83.546516      -83.710106      -83.590111      -83.452255      -83.284828      -83.059486      -83.071556      -83.340050      -82.292885      -82.729462      -82.770470      -82.398521      -81.909424      -81.265778      -81.001785      -81.729485      -81.492805      -80.680313      -80.301186      -81.200432      -81.912773      -82.130203      -82.630531      -82.477219      -82.271797      -81.641815      -81.317642      -82.015472      -81.708534      -81.350418      -80.506744      -80.939713      -79.986633      -79.465225      -78.179832      -78.805260      -79.365562      -80.448380      -80.852516      -79.863472      -78.626984      -77.088669      -76.354027      -78.019516      -77.344002      -76.597305      -74.659630      -75.545364      -73.350235      -72.309929      -69.503487      -70.706970      -71.828552      -74.309181      -75.188965      -72.868553      -73.828125      -74.709045      -76.721321      -75.992119      -77.752266      -79.169189      -79.648483      -78.347603      -78.877106      -80.066650      -80.424858      -79.342743      -77.968216      -76.243492      -75.513412      -77.379219      -80.838181      -81.168571      -80.968666      -80.778030      -80.335564      -79.602646      -79.419228      -80.269844      -80.135544      -79.166962      -78.847466      -79.934906      -80.737144      -81.301041      -81.275223      -80.823029      -80.367073      -81.140007      -81.254135      -80.584251      -79.669510      -78.461502      -78.009056      -79.340271      -78.947388      -77.489464      -76.901505      -78.490402      -79.745911      -80.723549      -80.962357      -80.087357      -82.656723      -82.748505      -82.443657      -82.423462      -82.089745      -82.030579      -81.471710      -81.618141      -81.722527      -81.702774      -82.082397      -82.002419      -82.160500      -82.331680      -82.486069      -82.224731      -81.364738      -81.857483      -81.900650      -81.541840      -81.589424      -81.841698      -81.673683      -81.552391      -81.084305      -81.355766      -81.230659      -80.743584      -80.489243      -81.073883      -80.721588      -79.897179      -79.617531      -75.729309      -78.142731      -80.371887      -79.520760      -80.517448      -80.836258      -81.399910      -81.270103      -81.845375      -81.919594      -81.666504      -82.070107      -81.737167      -80.829330      -82.721657      -82.845016      -82.470055      -82.272827      -82.359276      -82.282440      -82.606689      -82.710892      -82.977585      -82.835976      -82.983543      -83.166344      -83.291481      -83.408707      -83.160843      -83.053192      -82.480782      -82.979050      -83.419739      -83.136215      -83.343346      -83.570335      -83.444504      -83.127998      -82.053406      -82.684570      -83.090424      -82.838432      -82.505020      -82.822083      -81.836357      -80.987419      -78.313301      -79.831047      -82.241287      -82.642166      -81.123154      -79.684364      -76.374573      -77.860558      -75.454300      -75.007317      -75.866463      -76.830391      -76.026955      -42.573486      -40.090549      -38.874214      -41.254883      -43.703075      -46.202026      -47.706596      -45.119297      -46.611149      -49.282139      -50.921299      -48.174152      -45.438709      -43.968796      -41.381828      -42.747692      -40.127834      -38.871426      -36.453159      -37.599312      -35.176128      -32.867111      -31.931364      -34.137619      -33.161495      -31.052437      -30.228550      -32.246044      -34.362335      -35.374645      -37.686977      -36.573711      -35.530342      -34.555233      -32.529339      -33.414528      -31.389414      -29.457882      -28.738602      -30.589687      -29.844931      -28.068897      -27.446997      -29.153221      -30.938854      -31.704792      -33.646507      -32.802135      -34.740868      -36.752151      -37.763603      -35.667374      -37.732365      -36.663929      -38.850388      -40.013874      -42.365311      -41.107471      -43.425446      -44.773785      -42.159050      -39.929901      -38.832088      -40.975403      -43.175110      -45.422199      -46.765194      -44.441513      -47.222816      -45.791626      -48.190266      -49.692474      -52.159992      -50.602772      -53.008331      -54.600929      -51.475040      -49.115398      -47.705437      -50.011337      -52.324341      -53.825226      -56.146099      -54.627289      -56.902077      -59.130573      -60.622307      -58.417942      -59.965187      -62.130932      -63.640949      -61.528324      -59.306438      -56.990726      -55.384922      -57.710663      -62.528404      -60.281479      -58.628166      -60.917755      -63.091465      -65.137207      -66.605507      -64.639008      -66.156311      -68.033195      -69.409492      -67.630280      -65.684647      -64.122391      -61.934258      -63.570171      -61.291386      -58.861279      -57.142628      -59.601780      -57.912632      -56.240452      -53.777313      -55.442818      -52.898457      -51.264896      -48.730816      -50.309437      -51.950401      -54.581886      -56.301865      -53.643257      -55.375439      -58.043343      -59.790104      -57.132538      -60.657616      -58.898769      -61.525440      -63.232971      -65.596146      -63.965260      -66.201553      -67.737915      -64.606407      -62.289032      -60.582317      -62.964878      -65.173737      -66.730995      -68.661873      -67.201637      -69.049812      -70.725761      -71.975563      -70.406013      -71.692307      -73.154556      -74.260338      -72.904312      -71.377716      -69.661224      -68.230011      -70.056168      -73.786758      -72.294228      -71.017525      -72.622040      -74.039688      -75.292160      -76.250664      -75.097809      -76.079514      -77.137566      -77.955414      -76.986732      -75.876617      -74.871307      -73.488823      -74.600700      -73.132301      -71.443779      -70.099342      -71.906548      -70.596680      -69.205460      -67.168755      -68.672501      -66.505287      -64.897423      -62.392605      -64.088112      -65.730064      -68.045349      -69.508896      -67.306519      -64.825829      -63.151524      -60.325302      -62.072220      -59.072319      -55.875473      -54.093510      -57.287491      -55.498150      -52.329872      -50.597736      -53.719696      -56.763340      -59.670330      -61.428162      -58.550373      -57.893890      -54.980228      -53.216465      -56.115219      -54.350414      -52.614594      -49.801968      -51.486225      -48.586399      -46.979668      -44.186749      -45.696323      -47.272247      -50.251755      -51.966572      -48.908634      -45.861130      -42.872059      -41.451138      -44.325436      -42.856125      -41.456318      -38.814137      -40.098141      -37.446091      -36.278545      -33.861378      -34.915714      -36.031448      -38.679577      -39.979282      -37.209621      -42.774803      -39.755260      -38.450859      -41.344780      -44.358772      -47.458595      -49.111538      -45.907867      -47.514477      -50.811863      -52.549660      -49.172119      -45.817905      -44.267021      -41.122261      -42.550476      -39.416817      -38.117523      -35.275642      -36.447086      -33.657257      -31.052963      -30.117313      -32.607861      -31.610931      -29.229494      -28.388283      -30.665354      -33.102451      -35.699299      -36.878349      -34.161015      -34.579891      -32.098919      -31.149176      -33.519241      -32.516186      -31.569330      -29.405422      -30.251839      -28.123789      -27.370304      -25.463274      -26.131254      -26.840506      -28.923162      -29.769880      -27.592398      -25.564157      -23.682016      -23.096394      -24.899130      -24.272484      -23.682945      -22.027613      -22.545322      -20.947464      -20.495401      -19.084227      -19.476480      -19.895590      -21.429491      -21.942617      -20.342638      -23.066673      -21.324892      -20.818712      -22.487968      -24.303385      -26.268835      -27.014425      -24.961681      -25.658085      -27.802166      -28.633276      -26.393757      -24.328594      -23.679846      -21.862251      -22.431856      -20.698090      -19.122450      -18.690266      -20.200512      -19.732130      -19.291912      -17.903982      -18.284449      -16.978048      -16.651331      -15.530341      -15.809198      -16.108269      -17.327471      -17.700592      -16.428522      -15.302488      -15.028964      -14.086124      -14.319050      -13.475261      -12.769000      -12.599042      -13.276836      -13.093109      -12.442094      -12.297379      -12.923244      -13.669327      -13.869846      -14.774261      -14.537444      -14.317597      -14.113816      -13.312117      -13.483700      -12.766429      -12.164142      -12.041655      -12.621880      -12.488835      -11.929219      -11.826168      -12.366566      -13.007823      -13.153756      -13.925218      -13.750943      -14.597980      -14.805482      -15.797482      -15.551699      -16.615221      -17.791731      -18.129772      -16.904480      -17.215017      -18.491783      -18.878815      -17.547846      -16.346323      -15.270735      -15.029427      -16.062033      -14.917555      -14.065321      -13.914910      -14.737558      -15.651249      -16.658623      -16.911070      -15.865209      -16.096560      -17.183403      -17.476618      -16.346243      -15.323732      -15.112653      -14.228756      -14.406029      -13.590159      -13.442061      -12.750202      -12.873550      -12.254371      -11.731862      -11.645695      -12.151583      -12.057563      -11.567091      -11.495506      -11.971708      -12.533497      -12.637074      -13.305878      -13.180864      -13.066316      -12.961556      -12.352473      -12.438831      -11.893447      -11.430428      -11.371373      -11.822239      -11.757579      -11.317891      -11.269560      -11.698991      -12.202436      -12.273853      -12.865950      -12.778892      -13.428454      -14.152118      -14.279859      -13.534209      -13.776746      -13.650083      -14.419509      -14.571815      -15.453768      -15.271879      -16.209517      -16.425087      -16.010992      -15.104733      -14.951512      -15.828629      -16.785545      -17.000835      -18.076256      -17.824173      -18.946047      -20.152205      -20.489647      -19.238838      -19.555817      -20.854414      -21.247658      -19.898058      -18.645306      -17.488216      -17.234743      -18.349630      -20.072176      -18.717745      -18.375959      -19.676662      -19.307745      -18.057806      -17.762234      -18.964321      -21.670547      -20.266666      -20.662771      -22.124290      -22.610107      -21.087519      -21.542074      -23.129242      -26.661234      -24.835197      -24.245653      -25.995094      -25.370415      -23.693291      -23.176767      -24.785734      -28.311998      -26.497540      -27.156029      -29.050182      -29.837992      -27.859108      -28.608374      -30.677145      -25.308081      -26.977682      -27.621729      -25.882072      -24.239614      -22.694767      -22.245996      -23.730652      -23.257473      -21.829193      -21.443123      -22.818743      -24.278549      -24.774059      -26.378199      -25.821672      -25.306547      -24.831331      -23.397469      -23.820137      -22.413172      -21.086596      -20.758457      -22.039513      -21.696577      -20.457605      -20.182980      -21.383226      -22.654238      -23.995014      -24.394604      -23.009247      -23.631289      -22.331276      -22.039267      -23.302235      -23.006746      -22.743803      -21.544096      -21.777187      -20.610226      -20.405090      -19.327608      -19.506741      -19.708460      -20.841030      -21.098381      -19.933578      -18.837381      -17.809778      -17.641645      -18.642017      -18.467140      -18.311991      -17.358080      -17.491312      -16.578667      -16.465254      -15.632513      -15.728200      -15.836419      -16.706779      -16.850239      -15.957761      -17.186066      -16.242432      -16.092867      -17.009748      -17.996477      -19.054052      -19.292910      -18.202559      -18.428892      -19.554890      -19.840977      -18.676401      -17.592400      -17.379997      -16.407198      -16.587959      -15.661581      -14.811440      -14.683775      -15.509041      -15.370238      -15.2444