<VTKFile type="UnstructuredGrid" version="1.0" byte_order="LittleEndian" header_type="UInt64">
  <UnstructuredGrid>
    <Piece NumberOfPoints="40574" NumberOfCells="18683">
      <CellData Scalars="Scalars_">
        <DataArray type="Float32" Name="Scalars_" format="ascii">
     18.137632      18.137760      18.107851      18.107721      18.056852      17.994802      17.994940      18.056984      18.057249      17.995216      17.995630      18.057646      18.108494      18.108109      18.138012      18.138393      18.138903      18.139540      18.109657      18.109011      18.058178      17.996185      17.996880      18.058844      18.059647      17.997717      17.998695      18.060585      18.111351      18.110437      18.140308      18.141209      18.142242      18.143412      18.113585      18.112398      18.061665      17.999819      18.001087      18.062883      18.064245      18.002504      18.004072      18.065752      18.116377      18.114910      18.144718      18.146166      18.147755      18.149488      18.119745      18.117987      18.067406      18.005793      18.007668      18.069212      18.071169      18.009701      18.011894      18.073282      18.123713      18.121653      18.151371      18.153406      18.155594      18.157940      18.128304      18.125929      18.075554      18.014252      18.016775      18.077990      18.080589      18.019470      18.022337      18.083361      18.133547      18.130842      18.160448      18.163120      18.165962      18.168978      18.139471      18.136423      18.086302      18.025381      18.028606      18.089422      18.092722      18.032015      18.035610      18.096205      18.146107      18.142698      18.172169      18.175539      18.179094      18.182838      18.153484      18.149702      18.099876      18.039398      18.043383      18.103741      18.107800      18.047564      18.051947      18.112057      18.161634      18.157461      18.186775      18.190907      18.195238      18.199774      18.170589      18.166010      18.116518      18.056536      18.061335      18.121185      18.126060      18.066345      18.071569      18.131149      18.180372      18.175375      18.204515      18.209467      18.172909      18.114300      18.121290      18.179764      18.228228      18.256941      18.250227      18.221466      18.214928      18.243738      18.237473      18.208614      18.159866      18.166275      18.107531      18.100983      18.094656      18.153681      18.147717      18.088552      18.082672      18.077011      18.136454      18.141975      18.191011      18.185583      18.214632      18.220013      18.225613      18.196657      18.202526      18.231432      18.135914      18.128496      18.186840      18.194134      18.242418      18.235212      18.263878      18.271038      18.286018      18.278419      18.249844      18.257484      18.209364      18.201643      18.143541      18.151369      18.167591      18.159388      18.217289      18.225410      18.273396      18.265337      18.293833      18.301857      18.318510      18.310083      18.281652      18.290102      18.242208      18.233721      18.175962      18.184490      18.305296      18.246700      18.255579      18.314571      18.363081      18.391724      18.382137      18.353588      18.344162      18.372641      18.363255      18.334824      18.286814      18.296034      18.237743      18.228752      18.219767      18.277664      18.268608      18.210819      18.201939      18.193155      18.250864      18.259668      18.307533      18.298731      18.327124      18.335917      18.344877      18.316492      18.325594      18.353994      18.272903      18.264330      18.323826      18.333023      18.382162      18.372614      18.401379      18.411081      18.430529      18.420807      18.391695      18.401184      18.351080      18.342123      18.281235      18.289263      18.304113      18.296915      18.359852      18.368383      18.419886      18.410591      18.440222      18.449856      18.468830      18.459402      18.429029      18.437983      18.384521      18.376625      18.310776      18.316816      17.224384      17.071766      16.994820      17.159260      17.304022      17.436892      17.480564      17.358282      17.401861      17.515106      17.542040      17.436522      17.320627      17.277536      17.135717      17.188608      17.031097      16.965565      16.750988      16.834396      16.580009      16.244457      16.094505      16.470066      16.344219      15.924777      15.733809      16.200785      16.541716      16.654022      16.887926      16.796307      16.688532      16.562067      16.262754      16.412054      16.037899      15.520147      15.282275      15.853468      15.645101      15.018428      14.726188      15.410028      15.894660      16.091246      16.413979      16.240864      16.504166      16.725615      16.866707      16.660795      16.792315      16.902578      17.079868      16.983458      17.154552      17.236963      17.382273      17.314526      17.231049      17.053717      16.930746      17.128731      17.318502      17.496368      17.557468      17.399611      17.465496      17.518614      17.646204      17.606798      17.737326      17.764593      17.873543      17.856483      17.834133      17.702663      17.659275      17.805578      17.935148      17.951912      18.057001      18.049160      18.149561      18.238358      18.235277      18.150949      18.150578      18.231127      18.226048      18.148680      18.064713      17.973331      17.964439      18.062057      18.064138      17.982256      17.979115      18.065306      18.145470      18.220175      18.213629      18.141142      18.135868      18.206520      18.198952      18.129808      18.057575      18.061483      17.983162      17.982187      17.903246      17.820267      17.812666      17.900404      17.886106      17.894861      17.801352      17.785608      17.677265      17.701319      17.594513      17.561037      17.620518      17.719501      17.732779      17.640285      17.654861      17.741961      17.747736      17.665115      17.671783      17.675480      17.751305      17.750689      17.826460      17.824474      17.895576      17.899696      17.902540      17.826683      17.824766      17.903831      17.979639      17.975786      18.046814      18.052624      18.123096      18.191011      18.182783      18.115858      18.108202      18.174337      18.165739      18.100220      18.033234      17.965057      17.970860      18.040304      18.017878      17.951492      17.958553      18.025723      18.091999      18.157043      18.148302      18.083609      18.075113      18.139559      18.130850      18.066566      18.001526      18.009785      17.944000      17.936188      17.870598      17.804571      17.810881      17.877771      17.890421      17.884428      17.816435      17.821043      17.750000      17.747120      17.675936      17.676720      17.673496      17.742960      17.737764      17.669703      17.599716      17.526857      17.526724      17.601767      17.600380      17.602110      17.524488      17.519724      17.432777      17.441313      17.349981      17.336535      17.359783      17.446812      17.449757      17.366478      17.274378      17.262520      17.150942      17.170057      17.049419      16.907969      16.864330      17.020065      16.984276      16.811968      16.749735      16.941191      17.097340      17.126936      17.246819      17.226669      17.201380      17.170156      17.018127      17.061363      16.889860      16.676394      16.590620      16.829248      16.758230      16.491016      16.376127      16.675589      16.905817      16.966648      17.132093      17.086143      17.232079      17.267513      17.382742      17.355249      17.463734      17.562634      17.577948      17.484718      17.500498      17.588869      17.596140      17.511929      17.420637      17.318813      17.296091      17.404222      17.432940      17.363281      17.367460      17.438549      17.506786      17.573080      17.565798      17.500185      17.493092      17.558176      17.550310      17.485622      17.419813      17.426647      17.358171      17.352301      17.282385      17.286844      17.211704      17.209259      17.132036      17.049824      17.045723      17.131689      17.129326      17.038855      17.028744      17.124590      17.211937      17.212687      17.290245      17.292379      17.293005      17.291853      17.203987      17.209152      17.117083      17.014847      16.996553      17.106354      17.091890      16.973171      16.943930      17.073124      17.184908      17.196053      17.288610      17.282921      17.370525      17.450556      17.449558      17.372324      17.372223      17.370514      17.443319      17.447062      17.517965      17.512766      17.579912      17.586163      17.591675      17.522198      17.525248      17.596266      17.664812      17.731743      17.725071      17.659044      17.652578      17.645565      17.710335      17.717894      17.782616      17.774679      17.838940      17.847120      17.855175      17.790312      17.797668      17.863031      17.928144      17.919947      17.984758      17.993164      18.058018      18.122210      18.113665      18.049505      18.041063      18.105242      18.096960      18.032721      17.967995      17.903351      17.911665      17.976355      17.951540      17.886814      17.895054      17.959713      18.024504      18.088837      18.080887      18.016434      18.008526      18.073124      18.065556      18.000795      17.935608      17.943499      17.878664      17.870630      17.806087      17.741972      17.750175      17.814232      17.830698      17.822447      17.758394      17.766582      17.702499      17.694473      17.630400      17.638138      17.622446      17.686333      17.678137      17.614353      17.606182      17.669939      17.661781      17.597992      17.589825      17.581718      17.645723      17.653700      17.717825      17.710026      17.774782      17.782375      17.790136      17.725765      17.733824      17.798048      17.862738      17.855003      17.920347      17.927887      17.993254      18.058189      18.051035      17.985912      17.978775      18.044094      18.037371      17.971849      17.905855      17.840073      17.847445      17.913000      17.892193      17.825928      17.832899      17.898916      17.965137      18.030867      18.024584      17.958647      17.952374      18.018524      18.012684      17.946323      17.879395      17.885685      17.819168      17.812622      17.746315      17.680563      17.687643      17.753128      17.767368      17.760147      17.694920      17.702385      17.637880      17.630188      17.565819      17.573708      17.558071      17.622663      17.615322      17.550486      17.485903      17.421396      17.429365      17.493702      17.509676      17.501635      17.437428      17.445557      17.381083      17.372959      17.307961      17.315956      17.299891      17.364841      17.356768      17.291798      17.226254      17.234251      17.167639      17.159883      17.092428      17.023628      17.030321      17.099760      17.106701      17.036421      17.041767      17.113131      17.182358      17.175159      17.242134      17.249836      17.257277      17.264366      17.195351      17.189127      17.118914      17.046185      17.049458      17.123890      17.127880      17.051348      17.051577      17.130674      17.205584      17.200888      17.270996      17.277050      17.345812      17.338829      17.404968      17.412552      17.477873      17.542276      17.534143      17.469927      17.461853      17.525969      17.517799      17.453712      17.389164      17.323814      17.331467      17.397148      15.287341      15.118979      14.970476      15.156380      15.338747      15.512370      15.611573      15.452977      15.547600      15.693464      15.760583      15.625476      15.485653      15.396008      15.242252      15.344056      15.427632      15.559116      15.618849      15.495770      15.550862      15.594956      15.705252      15.666957      15.781827      15.814395      15.921042      15.893837      15.859001      15.740589      15.689090      15.815129      15.935874      16.050886      16.081909      15.972919      16.001993      16.024351      16.123949      16.105890      16.205555      16.219822      16.312170      16.301266      16.285778      16.186069      16.160353      16.264797      16.237251      16.201880      16.085270      16.127218      16.011503      15.889400      15.831797      15.962223      15.901252      15.761086      15.674978      15.826499      15.968105      16.101444      16.157192      16.032871      16.388607      16.275457      16.228088      16.349182      16.465309      16.576542      16.601274      16.497168      16.521725      16.619921      16.633478      16.540178      16.443205      16.419485      16.313025      16.342367      16.364819      16.460943      16.473694      16.381508      16.393394      16.401285      16.487461      16.482296      16.568251      16.570944      16.651917      16.651451      16.648581      16.562651      16.553535      16.642792      16.728802      16.811604      16.811768      16.731594      16.732023      16.730513      16.806847      16.810068      16.885695      16.881041      16.953239      16.959047      16.964006      16.889191      16.891264      16.967913      16.970526      16.971571      16.889847      16.891603      16.809183      16.723148      16.714052      16.804037      16.795622      16.700821      16.682646      16.783298      16.878284      16.967617      16.970726      16.885571      16.506741      16.312855      16.203302      16.423201      16.620569      16.793903      16.837156      16.681881      16.732273      16.872385      16.900665      16.773262      16.632196      16.478048      16.403505      16.575708      16.714781      16.588120      16.538893      16.678028      16.806179      16.922953      16.940096      16.832188      16.852306      16.952833      16.961819      16.867416      16.766321      16.658579      16.627506      16.743818      16.096180      16.169060      16.299568      16.237825      16.373793      16.424740      16.544550      16.503908      16.389887      16.452993      16.310503      16.232559      16.068388      16.161665      16.006868      15.898088      15.607240      15.766273      15.954823      15.817232      16.021336      16.137236      16.312346      16.217743      15.964550      16.103003      15.881106      15.712165      15.451714      15.651238      15.416089      15.187103      14.656032      14.360501      14.014865      14.342855      14.640244      14.918396      15.175330      14.924569      15.164305      15.390804      15.570921      15.365773      15.145883      14.905372      14.655125      14.921542      15.493191      15.295680      15.117149      15.334765      15.534488      15.720945      15.845404      15.675227      15.792121      15.948174      16.032576      15.888729      15.735530      15.570823      15.445561      15.625518      14.579796      14.792410      14.999358      14.811976      15.037861      15.201625      15.392934      15.249914      14.877325      15.079491      14.843201      14.612851      14.325959      14.589346      14.326941      14.027387      13.258205      13.673849      14.015662      13.651659      14.023095      14.341455      14.638521      14.357587      13.644242      14.028411      13.651314      13.219190      12.732427      13.226549      12.771482      12.203894      6.715269      5.037927      3.419842      5.454945      6.821581      7.539464      8.702914      7.937952      8.967882      9.722137      10.616366      9.903218      8.946483      7.882866      6.483616      7.769648      8.907420      9.902815      10.753678      9.908220      10.783531      11.544937      12.161048      11.504110      12.144747      12.719461      13.197685      12.680701      12.084589      11.487873      10.742374      11.399926      11.961947      12.453475      13.039552      12.593751      13.140105      13.610804      13.974680      13.543285      13.907991      14.304109      14.612953      14.250902      13.822986      13.442716      12.898106      13.318694      12.726183      12.032207      11.525650      12.263045      11.774247      11.234234      10.399706      10.990398      10.090014      9.447510      8.367871      9.060975      9.694626      10.279601      11.222076      10.673584      12.474913      11.814032      10.935985      11.694808      12.513428      13.348429      13.890263      13.178543      13.745285      14.352948      14.746542      14.226554      13.704823      13.139915      12.563535      13.201440      13.742839      14.183189      14.587088      14.201087      14.587927      14.913624      15.212672      14.927151      15.266857      15.509397      15.798224      15.599216      15.361980      14.977672      14.633922      15.080166      15.503960      15.890248      16.059509      15.726496      15.914104      16.071623      16.322697      16.202497      16.458120      16.546627      16.741415      16.678349      16.603216      16.352894      16.228552      16.514395      16.410130      16.288544      15.911797      16.082470      15.690811      15.241014      14.931494      15.456870      15.183664      14.568522      14.144485      14.866017      15.484370      15.985545      16.147682      15.713490      10.908192      8.651530      7.338928      10.029202      12.261297      13.757910      14.126987      12.797761      13.304325      14.473701      14.794547      13.772385      12.407893      10.788328      9.792024      11.700253      13.589362      12.418677      11.659121      13.035727      14.198078      15.087685      15.352589      14.580564      14.920882      15.589706      15.800167      15.221211      14.498371      13.651030      13.079053      14.074851      8.716542      9.910486      10.783315      9.723258      10.829900      11.735721      12.716545      11.983084      10.165003      11.136302      9.779124      8.565020      7.089578      8.497346      7.330929      5.727981      1.753805      3.879343      5.487737      3.687796      5.559743      7.166914      9.059912      7.816243      4.950588      6.438598      3.709025      1.559624      -0.428693      1.701707      -0.682177      -3.461413      -3.672196      -15.257155      -7.111066      -1.767897      -5.234858      -2.016817      -0.627396      0.969657      0.625470      2.865276      2.679430      1.466841      1.392660      0.339660      -0.803905      5.075389      4.347875      2.830491      3.390860      4.346718      4.795195      6.469568      5.901208      7.314128      7.924453      9.186973      8.577627      7.891075      7.154264      5.807998      6.567606      -0.414239      1.612097      4.125426      2.769400      4.421112      5.637418      6.202876      4.645178      0.452940      2.781110      3.236557      2.195957      0.320902      1.460100      -2.714728      -5.401931      -13.054123      -8.706207      -0.439919      1.496512      -2.637245      -7.057719      -16.716396      -12.643036      -23.179581      -24.851023      -21.020226      -17.514315      -21.211716      16.512505      16.585852      16.577967      16.504612      16.430176      16.354586      16.362329      16.438025      16.445812      16.369946      16.377323      16.453444      16.528206      16.520397      16.593786      16.601702      16.674034      16.666073      16.737356      16.745300      16.815609      16.885067      16.877310      16.807734      16.799984      16.869713      16.862312      16.792404      16.721773      16.729496      16.658152      16.650326      16.642649      16.635166      16.706902      16.714230      16.785028      16.855133      16.848200      16.777885      16.771002      16.841537      16.835161      16.764402      16.693018      16.699821      16.627914      16.620926      16.548054      16.474329      16.481600      16.555199      16.570196      16.562592      16.489101      16.496790      16.422352      16.414623      16.339087      16.346809      16.331482      16.407049      16.399685      16.324060      16.247406      16.169680      16.177095      16.254845      16.270102      16.262434      16.184620      16.192181      16.113008      16.105616      16.025410      16.032581      16.018154      16.098202      16.090855      16.010918      15.929878      15.936965      15.854664      15.847762      15.764614      15.680497      15.686970      15.771307      15.777842      15.693221      15.699102      15.784080      15.868052      15.950912      15.944014      15.861469      15.879945      15.963717      15.957531      15.874268      15.789859      15.704435      15.709011      15.794991      15.799252      15.712586      15.714870      15.802379      15.888846      15.884883      15.969292      15.974046      16.057808      16.140030      16.133942      16.052340      16.046194      16.039555      16.120277      16.127302      16.207016      16.199680      16.277771      16.285345      16.292717      16.214064      16.220676      16.299759      16.306318      16.226686      16.231892      16.312222      16.321192      16.317261      16.236057      16.238907      16.154495      16.152899      16.067759      16.067919      16.065794      16.149755      16.145378      16.062378      15.977732      15.980062      15.892699      15.891561      15.804066      15.715524      15.714146      15.803947      15.801598      15.710261      15.703312      15.796513      15.888655      15.979240      15.980698      15.891880      15.872783      15.968094      15.975222      15.882496      15.788098      15.692640      15.677467      15.775660      15.758376      15.656879      15.629799      15.735283      15.839659      15.858788      15.957212      15.941823      16.041063      16.137047      16.146004      16.053049      16.061090      16.065857      16.154177      16.151516      16.239304      16.240116      16.323727      16.324528      16.323196      16.236019      16.229733      16.319262      16.405867      16.407719      16.489790      16.489790      16.571249      16.650412      16.647306      16.569599      16.566366      16.642908      16.637486      16.561861      16.484453      16.405123      16.407333      16.487890      16.401443      16.479784      16.474146      16.396587      16.390812      16.384331      16.460802      16.467756      16.543158      16.535831      16.609516      16.617126      16.624420      16.550051      16.556347      16.631260      16.704643      16.776619      16.769018      16.697371      16.689772      16.681961      16.753273      16.761206      16.831545      16.823565      16.892948      16.900908      16.908894      16.839485      16.847311      16.916849      16.862249      16.932371      16.924702      16.854933      16.783897      16.711456      16.717653      16.790724      16.796947      16.723047      16.727419      16.802391      16.875456      16.869137      16.939760      16.946760      17.016476      17.008982      17.076986      17.084806      17.151972      17.218203      17.210148      17.143972      17.135941      17.202133      17.194199      17.127930      17.061037      16.993351      17.001244      17.069040      16.985374      17.053034      17.045078      16.977379      16.969419      16.961542      17.029474      17.037212      17.104420      17.096867      17.163847      17.171179      17.178696      17.112135      17.119982      17.186377      17.252377      17.318134      17.310907      17.244905      17.237623      17.230543      17.297081      17.303886      17.370106      17.363588      17.430187      17.436407      17.442854      17.376846      17.383801      17.449524      17.398317      17.463497      17.456408      17.390961      17.325550      17.260017      17.267807      17.333141      17.340891      17.275719      17.283728      17.348774      17.413551      17.405851      17.470785      17.478260      17.543079      17.608175      17.601231      17.535860      17.528843      17.522034      17.587976      17.594496      17.660578      17.654350      17.721231      17.727173      17.733335      17.667025      17.673687      17.739717      17.806295      17.800186      17.867477      17.873327      17.940493      18.007065      18.001665      17.934883      17.929491      17.996481      17.991512      17.924316      17.856441      17.861851      17.794300      17.788633      17.783188      17.777964      17.846277      17.851252      17.919359      17.986755      17.982208      17.914612      17.910076      17.977865      17.973726      17.905746      17.836971      17.841518      17.772955      17.768166      17.699688      17.704742      17.637005      17.631672      17.564127      17.496998      17.502916      17.569750      17.575602      17.509066      17.515440      17.581676      17.648344      17.715513      17.710016      17.642563      17.617018      17.685839      17.681656      17.612579      17.543922      17.475641      17.480629      17.548630      17.553568      17.485851      17.491308      17.558733      17.626564      17.621679      17.690237      17.694853      17.763588      17.759226      17.828501      17.832632      17.901621      17.969786      17.966042      17.897697      17.893970      17.962490      17.959127      17.890440      17.820845      17.824572      17.755072      17.751127      17.747387      17.743851      17.813984      17.817316      17.887098      17.955948      17.952953      17.883947      17.880981      17.950136      17.947495      17.878197      17.807894      17.810844      17.740515      17.737379      17.667036      17.597023      17.600584      17.670378      17.677685      17.673925      17.604364      17.608362      17.539444      17.535192      17.466375      17.470890      17.462097      17.531170      17.527374      17.458055      17.389002      17.393297      17.324680      17.320124      17.251329      17.182526      17.187618      17.256151      17.261240      17.192982      17.198612      17.266588      17.334558      17.402626      17.397839      17.329493      17.357302      17.424200      17.418447      17.351252      17.345442      17.412931      17.407658      17.339876      17.204506      17.272194      17.278051      17.210653      17.217047      17.284157      17.290503      17.223680      17.089497      17.156719      17.149811      17.082333      17.075392      17.143135      17.136705      17.068689      16.931595      17.000353      17.007311      16.938787      16.946194      17.014498      17.021893      16.953789      16.987194      16.917940      16.924639      16.993643      17.062239      17.130529      17.124619      17.056055      17.050144      17.118980      17.113621      17.044519      16.975134      16.981020      16.911514      16.905378      16.899544      16.894024      16.964270      16.969547      17.039186      17.108547      17.103764      17.034155      17.029428      17.099277      17.095091      17.025017      16.954668      16.883966      16.888828      16.959307      16.879448      16.950361      16.946390      16.875280      16.871469      16.868021      16.939484      16.942762      17.013710      17.010599      17.081440      17.084383      17.087641      17.017153      17.020922      17.091211      17.161306      17.231287      17.228111      17.157932      17.154858      17.152084      17.222607      17.225216      17.295538      17.293089      17.363615      17.365908      17.368454      17.298256      17.301241      17.371254      17.308006      17.377604      17.374304      17.304493      17.234745      17.164972      17.168932      17.238480      17.242491      17.173180      17.177711      17.246775      17.315825      17.311785      17.381153      17.384953      17.454252      17.523806      17.520460      17.450686      17.447355      17.444262      17.514448      17.517342      17.587627      17.584923      17.655712      17.658241      17.660969      17.590546      17.593678      17.663900      17.734438      17.731693      17.802553      17.805132      17.875593      17.945026      17.942728      17.873165      17.870913      17.940596      17.938627      17.868830      17.797945      17.800159      17.729139      17.726776      17.724602      17.722614      17.794050      17.795910      17.866919      17.936821      17.935173      17.865173      17.863592      17.933683      17.932348      17.862177      17.790855      17.792366      17.720812      17.719193      17.647589      17.649324      17.578075      17.576212      17.505110      17.434263      17.436407      17.507111      17.509333      17.438787      17.441406      17.511780      17.582430      17.653385      17.651257      17.580147      17.571869      17.643547      17.642588      17.570837      17.499336      17.428068      17.429260      17.500446      17.501780      17.430689      17.432358      17.503334      17.574556      17.573109      17.644701      17.646048      17.717758      17.716505      17.788347      17.789516      17.860922      17.931166      17.930134      17.859827      17.858891      17.929253      17.928520      17.858112      17.786514      17.787346      17.715431      17.714539      17.713825      17.713291      17.785353      17.785851      17.857491      17.927937      17.927500      17.857025      17.856716      17.927208      17.927063      17.856560      17.784855      17.785021      17.712934      17.712757      17.640671      17.568773      17.568981      17.640863      17.641821      17.641247      17.569393      17.570011      17.498449      17.497782      17.426397      17.427113      17.425920      17.497339      17.497116      17.425682      17.354418      17.354673      17.283527      17.283253      17.212111      17.140911      17.14