<VTKFile type="UnstructuredGrid" version="1.0" byte_order="LittleEndian" header_type="UInt64">
  <UnstructuredGrid>
    <Piece NumberOfPoints="40574" NumberOfCells="18683">
      <CellData Scalars="Scalars_">
        <DataArray type="Float32" Name="Scalars_" format="ascii">
     23.240005      23.240120      23.258579      23.258463      23.307661      23.386656      23.386784      23.307781      23.308022      23.387035      23.387411      23.308380      23.259157      23.258810      23.240349      23.240690      23.241144      23.241709      23.260195      23.259619      23.308859      23.387913      23.388538      23.309454      23.310163      23.389284      23.390150      23.310987      23.261677      23.260880      23.242382      23.243164      23.244051      23.245041      23.263586      23.262579      23.311922      23.391134      23.392233      23.312967      23.314117      23.393446      23.394766      23.315371      23.265902      23.264694      23.246130      23.247314      23.248592      23.249956      23.268595      23.267202      23.316723      23.396194      23.397724      23.318169      23.319706      23.399351      23.401072      23.321329      23.271626      23.270071      23.251404      23.252928      23.254524      23.256186      23.274956      23.273256      23.323030      23.402882      23.404772      23.324808      23.326653      23.406740      23.408779      23.328558      23.278530      23.276714      23.257906      23.259678      23.261494      23.263344      23.282293      23.280392      23.330517      23.410879      23.413036      23.332521      23.334564      23.415241      23.417486      23.336636      23.286179      23.284224      23.265223      23.267118      23.269022      23.270926      23.290112      23.288143      23.338728      23.419764      23.422062      23.340830      23.342934      23.424374      23.426689      23.345026      23.294008      23.292068      23.272814      23.274679      23.276508      23.278286      23.297777      23.295916      23.347095      23.428995      23.431282      23.349131      23.351120      23.433537      23.435749      23.353050      23.301315      23.299582      23.280003      23.281643      23.363655      23.448835      23.450176      23.364561      23.310780      23.290121      23.289673      23.310183      23.309381      23.289011      23.288160      23.308395      23.361301      23.362562      23.447329      23.445673      23.443888      23.359888      23.358341      23.441988      23.439987      23.437904      23.354906      23.356674      23.304512      23.302963      23.283192      23.284634      23.285954      23.305944      23.307245      23.287134      23.452288      23.451334      23.365261      23.365734      23.311289      23.311155      23.290340      23.290308      23.289410      23.290005      23.311159      23.310745      23.365925      23.365963      23.453020      23.453510      23.453672      23.453735      23.365597      23.364958      23.308973      23.310024      23.288496      23.287245      23.283632      23.285633      23.307570      23.305786      23.362652      23.363983      23.453302      23.452597      23.341034      23.436029      23.431631      23.335833      23.274704      23.250452      23.256540      23.280499      23.285685      23.262012      23.266899      23.290297      23.349693      23.345642      23.439852      23.443136      23.445913      23.353216      23.356247      23.448219      23.450083      23.451532      23.360935      23.358810      23.300987      23.303602      23.281218      23.278366      23.275047      23.297918      23.294363      23.271235      23.420952      23.426619      23.330004      23.323511      23.261160      23.268270      23.243713      23.236294      23.219255      23.228153      23.253338      23.244764      23.308374      23.316315      23.414589      23.407486      23.390852      23.399590      23.299648      23.290089      23.225201      23.235399      23.209564      23.199036      23.175306      23.187632      23.214127      23.202133      23.268280      23.279650      23.381216      23.370625      24.531137      24.562191      24.542871      24.515556      24.475096      24.421015      24.430462      24.487366      24.496248      24.437170      24.441576      24.502306      24.550720      24.542627      24.576698      24.587210      24.611725      24.598288      24.606293      24.623499      24.620878      24.601320      24.571501      24.598482      24.569784      24.534048      24.487646      24.533636      24.554825      24.583740      24.580227      24.556622      24.526365      24.488111      24.472815      24.518332      24.488663      24.430738      24.361452      24.433233      24.365395      24.277470      24.175812      24.282833      24.347521      24.416553      24.440237      24.380762      24.394192      24.392614      24.434938      24.445038      24.485628      24.517752      24.495043      24.468582      24.437548      24.458761      24.408300      24.391697      24.370462      24.410477      24.376373      24.343721      24.292778      24.222738      24.238846      24.313482      24.329939      24.342794      24.261740      24.251690      24.157118      24.165262      24.054256      24.047222      24.038467      24.146795      24.133955      24.027748      23.906439      23.915991      23.782764      23.773623      23.634602      23.496891      23.506735      23.643902      23.652079      23.515562      23.523449      23.659231      23.797281      23.930561      23.923971      23.790607      23.807570      23.940170      23.935913      23.802900      23.665443      23.530460      23.536661      23.670795      23.675358      23.542109      23.546854      23.679197      23.814413      23.811380      23.943453      23.945868      24.069128      24.181446      24.179417      24.067070      24.059788      24.064005      24.176174      24.171530      24.269403      24.275026      24.359816      24.352598      24.364843      24.278906      24.281296      24.368021      24.369633      24.282412      24.282444      24.369921      24.369091      24.367317      24.279860      24.281548      24.181801      24.180420      24.069544      24.070421      24.070702      24.182505      24.182428      24.070303      23.947512      23.948467      23.818441      23.816746      23.682369      23.550949      23.554438      23.684933      23.686934      23.557364      23.559767      23.688419      23.820160      23.948606      23.948809      23.819561      23.819984      23.946789      23.947914      23.820286      23.689430      23.561682      23.563147      23.690008      23.690184      23.564192      23.564850      23.689995      23.818254      23.819294      23.945276      23.943419      24.061419      24.169813      24.173086      24.064030      24.068146      24.066288      24.175987      24.178455      24.277500      24.274567      24.361511      24.364748      24.357714      24.271149      24.267319      24.353447      24.428228      24.492008      24.496761      24.432804      24.440207      24.436834      24.500872      24.504202      24.557234      24.554123      24.597126      24.599808      24.593357      24.550093      24.545305      24.588690      24.622704      24.627054      24.651567      24.647797      24.664288      24.672379      24.673807      24.667128      24.668392      24.673260      24.670343      24.667767      24.654999      24.654057      24.630337      24.632328      24.632767      24.631338      24.650951      24.654085      24.664883      24.664600      24.655499      24.659306      24.650528      24.642418      24.624638      24.637953      24.636217      24.645166      24.627665      24.621305      24.594398      24.598824      24.558908      24.555988      24.506008      24.444054      24.444914      24.507748      24.507853      24.444416      24.442785      24.506594      24.559229      24.601173      24.600954      24.559879      24.507023      24.549341      24.556749      24.514112      24.462095      24.400068      24.393808      24.455387      24.448563      24.387444      24.381008      24.441660      24.492466      24.499792      24.541761      24.534063      24.567114      24.575130      24.600533      24.592260      24.610106      24.621202      24.629755      24.618563      24.626757      24.637964      24.645720      24.634604      24.616411      24.608608      24.582994      24.590645      24.598009      24.605005      24.630844      24.623856      24.641996      24.652895      24.659340      24.648815      24.654919      24.664881      24.669308      24.660141      24.642963      24.637259      24.611532      24.617477      24.583286      24.539894      24.533979      24.577286      24.570799      24.563925      24.521011      24.527657      24.474968      24.468637      24.406187      24.412117      24.417809      24.481022      24.486731      24.423203      24.348791      24.263144      24.258677      24.343813      24.338572      24.333117      24.249063      24.253969      24.158262      24.153975      24.048298      24.051908      24.055321      24.162357      24.166222      24.058504      23.941256      23.938820      23.815254      23.816896      23.689470      23.565147      23.565113      23.688639      23.687527      23.564772      23.564148      23.686159      23.811222      23.933258      23.936144      23.813353      23.806366      23.926954      23.930187      23.808886      23.684561      23.563267      23.562147      23.682753      23.680758      23.560812      23.559280      23.678595      23.800859      23.803684      23.923584      23.920095      24.032408      24.135487      24.140257      24.036551      24.044518      24.040594      24.144943      24.149525      24.243996      24.238802      24.321735      24.327492      24.315884      24.233509      24.228144      24.309961      24.303999      24.222731      24.217287      24.298016      24.292032      24.286070      24.206390      24.211836      24.120884      24.115978      24.015238      24.019588      24.023911      24.125782      24.130655      24.028189      23.916508      23.912840      23.794863      23.797913      23.676283      23.557573      23.555708      23.673838      23.671280      23.553703      23.551573      23.668623      23.788507      23.905325      23.909107      23.791721      23.781921      23.897671      23.901508      23.785236      23.665884      23.549337      23.547007      23.663076      23.660213      23.544601      23.542130      23.657310      23.775209      23.778574      23.893826      23.889984      23.997843      24.096548      24.101351      24.002167      24.010876      24.006516      24.106199      24.111078      24.200968      24.195581      24.274263      24.280142      24.268450      24.190243      24.184967      24.262711      24.329870      24.386831      24.393456      24.336060      24.348686      24.342335      24.400179      24.406986      24.455593      24.448351      24.487492      24.495152      24.479923      24.441198      24.434149      24.472466      24.502453      24.510307      24.533009      24.524775      24.540064      24.548918      24.557865      24.548664      24.557371      24.566912      24.576027      24.566160      24.549788      24.541353      24.518272      24.526329      24.534458      24.542631      24.566820      24.558287      24.574999      24.585178      24.594322      24.583857      24.592693      24.603415      24.612396      24.601461      24.583849      24.575354      24.550821      24.558996      24.526291      24.518482      24.477678      24.485083      24.434710      24.374533      24.368040      24.427744      24.420786      24.361557      24.355099      24.413860      24.462910      24.502886      24.510670      24.470278      24.227480      24.177181      24.179506      24.231163      24.280258      24.326454      24.320723      24.275433      24.269051      24.313604      24.305403      24.261446      24.215166      24.222025      24.172817      24.166836      24.159588      24.207212      24.198418      24.151360      24.142385      24.132860      24.179098      24.188988      24.233797      24.223600      24.266153      24.276588      24.286707      24.243612      24.252892      24.296368      24.337458      24.376011      24.365858      24.327509      24.317169      24.306568      24.344669      24.355371      24.391024      24.380278      24.413214      24.423952      24.434557      24.401596      24.411884      24.444923      24.454926      24.464407      24.431028      24.421751      24.385681      24.346859      24.355518      24.394691      24.402824      24.363207      24.369640      24.409811      24.446957      24.481018      24.473183      24.439512      24.530848      24.503691      24.511873      24.539339      24.563179      24.583109      24.574137      24.554420      24.545050      24.564659      24.554821      24.535233      24.511883      24.521633      24.494675      24.485037      24.474949      24.501755      24.491371      24.464552      24.453962      24.443275      24.470243      24.480841      24.504347      24.493883      24.513927      24.524221      24.534513      24.514778      24.525105      24.544741      24.560375      24.571690      24.561789      24.550289      24.540174      24.530088      24.542046      24.551891      24.559013      24.549440      24.551880      24.561152      24.570513      24.568659      24.578335      24.579926      24.589350      24.598738      24.597574      24.587994      24.581535      24.570362      24.580168      24.591257      24.600769      24.589695      24.598818      24.609972      24.616215      24.617161      24.608030      24.607010      24.651733      24.634283      24.631298      24.651258      24.664562      24.670698      24.667456      24.662949      24.659508      24.662788      24.656961      24.654579      24.646135      24.632055      24.634350      24.649879      24.634388      24.622154      24.627861      24.640869      24.648453      24.650200      24.642693      24.641365      24.633524      24.634596      24.626049      24.625092      24.618746      24.607393      24.615244      24.626942      24.524643      24.518963      24.546875      24.553169      24.577995      24.571119      24.591402      24.598806      24.609850      24.605061      24.583504      24.587273      24.560564      24.557875      24.528522      24.530125      24.524000      24.528856      24.560715      24.557680      24.587669      24.588846      24.612795      24.613424      24.605347      24.611174      24.583063      24.574194      24.538719      24.550671      24.514664      24.499754      24.387865      24.338682      24.313711      24.365314      24.413166      24.457870      24.475502      24.433308      24.446865      24.487017      24.493608      24.455112      24.413307      24.367916      24.356287      24.403416      24.420279      24.377571      24.374701      24.418631      24.459085      24.496246      24.495720      24.459627      24.457430      24.492674      24.487631      24.453054      24.415329      24.374474      24.377289      24.418982      24.175859      24.179276      24.232624      24.231321      24.283569      24.283133      24.330433      24.332211      24.326902      24.331253      24.280989      24.274693      24.217670      24.226599      24.168501      24.156271      24.112484      24.138052      24.203592      24.183231      24.247435      24.263842      24.318373      24.304701      24.257036      24.284725      24.224274      24.192936      24.118013      24.155237      24.077925      24.032387      23.401829      23.124466      22.842615      23.200010      23.387388      23.429762      23.636032      23.566980      23.718548      23.798328      23.926704      23.844509      23.716280      23.573147      23.352081      23.535984      23.684246      23.834316      23.930519      23.803278      23.898268      23.973467      24.069674      24.008018      24.098738      24.151745      24.219912      24.171249      24.108458      24.031637      23.947853      24.028307      24.099821      24.166136      24.237284      24.175579      24.234482      24.279673      24.334122      24.292269      24.346556      24.384886      24.432657      24.398060      24.351864      24.295841      24.229897      24.291348      24.213160      24.113173      24.037706      24.145252      24.075104      24.003365      23.881536      23.959618      23.814053      23.728739      23.538477      23.631433      23.732758      23.826216      23.986294      23.902210      24.172863      24.075958      23.929689      24.045546      24.163620      24.278336      24.364714      24.270706      24.355106      24.432753      24.485746      24.421038      24.352098      24.273373      24.191383      24.281914      24.352333      24.413143      24.459850      24.406496      24.447519      24.477924      24.520630      24.494942      24.539356      24.560041      24.595104      24.579414      24.557028      24.510612      24.471937      24.526423      24.574253      24.613697      24.629980      24.597290      24.613708      24.624714      24.647919      24.641081      24.660599      24.663940      24.672207      24.671610      24.668480      24.653963      24.643351      24.662304      24.652493      24.638353      24.606848      24.627962      24.591133      24.543144      24.502199      24.560974      24.521646      24.449286      24.381821      24.471272      24.542828      24.593767      24.619085      24.578899      23.557590      23.119629      22.723017      23.293413      23.746542      24.018995      24.141478      23.913725      24.058233      24.246122      24.334658      24.181129      23.958662      23.688101      23.434923      23.777266      24.229240      24.057163      23.892313      24.107605      24.284283      24.408812      24.470270      24.369877      24.440128      24.520624      24.561344      24.497139      24.407610      24.296671      24.190012      24.327990      23.513023      23.745148      23.885298      23.684717      23.859524      24.028683      24.169653      24.033926      23.658089      23.865559      23.648256      23.384985      23.125721      23.434963      23.221590      22.856010      21.821962      22.397449      22.745441      22.282173      22.647505      23.057024      23.404345      23.097013      22.302383      22.730110      22.132792      21.477331      21.072058      21.725681      21.099352      20.192455      19.790554      15.309365      18.328325      20.683334      19.622702      20.712831      21.095678      21.615843      21.531229      22.164099      22.119595      21.715797      21.893002      21.573597      20.923855      22.758770      22.678347      22.292250      22.304287      22.566593      22.662050      23.057549      22.946918      23.263138      23.373068      23.625095      23.522354      23.402977      23.303711      23.017982      23.117287      22.051964      22.492126      22.967270      22.707161      22.944399      23.178947      23.164621      22.817245      21.691967      22.348867      22.693832      22.451977      22.165083      22.431040      21.489054      20.747484      18.298906      19.726786      21.963327      22.272171      20.724171      19.216747      15.549561      17.213421      14.064365      13.337202      15.299023      16.755510      15.634589      24.388866      24.411417      24.403625      24.380856      24.354805      24.325766      24.334164      24.363020      24.371544      24.342875      24.351885      24.380369      24.405798      24.397184      24.419508      24.427891      24.446331      24.438200      24.452909      24.460775      24.470840      24.476097      24.468801      24.463253      24.455936      24.461765      24.454998      24.448896      24.438021      24.445322      24.430353      24.422800      24.415548      24.408607      24.424305      24.431011      24.442142      24.448505      24.442295      24.435680      24.429514      24.436371      24.430740      24.423653      24.411821      24.417906      24.401983      24.395683      24.375639      24.352055      24.358751      24.382145      24.396145      24.388981      24.365788      24.373159      24.346912      24.339350      24.309961      24.317696      24.302570      24.332127      24.325254      24.295536      24.263170      24.228401      24.235706      24.270350      24.285776      24.277887      24.243374      24.251394      24.214775      24.206642      24.167900      24.176121      24.160032      24.198864      24.191452      24.152533      24.111828      24.119398      24.077137      24.069519      24.025764      23.980722      23.988392      24.033417      24.041433      23.996422      24.004797      24.049799      24.093460      24.135624      24.127335      24.085123      24.111132      24.153212      24.144255      24.102137      24.058496      24.013498      24.022511      24.067513      24.076822      24.031811      24.041376      24.086409      24.130016      24.120434      24.162477      24.172033      24.212288      24.250597      24.241177      24.202785      24.193579      24.184687      24.223249      24.232056      24.268452      24.259758      24.294004      24.302561      24.311432      24.277460      24.286772      24.320608      24.330069      24.296368      24.306231      24.339802      24.359987      24.349781      24.316338      24.326664      24.290874      24.280464      24.242361      24.252821      24.232100      24.270264      24.260300      24.222067      24.181860      24.191931      24.149940      24.139860      24.096245      24.051180      24.061188      24.106300      24.116545      24.071367      24.081671      24.126936      24.170670      24.212692      24.202219      24.160221      24.191891      24.234026      24.223309      24.181244      24.137428      24.092049      24.102440      24.147964      24.158478      24.112768      24.122944      24.168888      24.213148      24.202549      24.244785      24.255520      24.295815      24.333853      24.323002      24.284996      24.274185      24.263443      24.301462      24.312187      24.347843      24.337177      24.370392      24.380960      24.391653      24.358620      24.369452      24.402424      24.432566      24.421898      24.449129      24.459654      24.483452      24.503689      24.493551      24.473103      24.462877      24.483549      24.473717      24.452814      24.428448      24.400890      24.411325      24.438713      24.390633      24.418367      24.408497      24.380579      24.370756      24.361185      24.389479      24.398861      24.423862      24.414696      24.436552      24.445480      24.454662      24.433285      24.442942      24.464081      24.481483      24.494814      24.485941      24.472328      24.463408      24.454739      24.468910      24.477303      24.486788      24.478687      24.483648      24.491444      24.499474      24.495129      24.503700      24.507729      24.521475      24.524862      24.516197      24.512487      24.503904      24.490858      24.500431      24.513195      24.522665      24.510180      24.520077      24.532291      24.539974      24.530643      24.533712      24.542725      24.540096      24.531420      24.523268      24.531593      24.516668      24.494728      24.487144      24.508709      24.500910      24.479717      24.472458      24.493286      24.507126      24.514578      24.522907      24.515108      24.506443      24.499332      24.491741      24.498514      24.490807      24.483324      24.477203      24.484364      24.471554      24.464724      24.445276      24.451777      24.458479      24.478598      24.485844      24.465374      24.437283      24.400900      24.394718      24.430740      24.424383      24.418219      24.382879      24.388708      24.344078      24.338589      24.284704      24.289852      24.295156      24.349737      24.355556      24.300610      24.367657      24.311941      24.306208      24.361532      24.407251      24.444002      24.450890      24.413759      24.420420      24.457937      24.465132      24.427219      24.380316      24.373920      24.317801      24.323780      24.257059      24.179762      24.174639      24.251503      24.246054      24.240717      24.164673      24.169607      24.082504      24.077976      23.981007      23.985126      23.989313      24.087114      24.091799      23.993555      23.886158      23.882359      23.768473      23.771839      23.654379      23.539610      23.537052      23.651432      23.648479      23.534470      23.531874      23.645535      23.761801      23.765123      23.878595      23.874876      23.871214      23.867613      23.755268      23.758512      23.642603      23.529276      23.526686      23.639700      23.636833      23.524115      23.521570      23.634008      23.748949      23.752077      23.864082      23.860632      23.965328      23.969110      24.064966      24.060844      24.146078      24.220665      24.225470      24.150543      24.155134      24.230419      24.235504      24.159845      24.073540      23.976957      23.972990      24.069201      24.049212      23.954617      23.951279      24.045597      24.129616      24.202974      24.207155      24.133512      24.137558      24.211502      24.216005      24.141748      24.056841      24.052961      23.958075      23.961647      23.857267      23.853994      23.742905      23.745890      23.631237      23.519064      23.516602      23.628527      23.625883      23.514193      23.511845      23.623314      23.737194      23.740005      23.850821      23.847754      23.844795      23.841955      23.731869      23.734480      23.620827      23.509565      23.507360      23.618429      23.616125      23.505238      23.503201      23.613920      23.726971      23.729362      23.839235      23.836641      23.939234      24.032585      24.035612      23.942039      23.948069      23.944986      24.038794      24.042124      24.125874      24.122290      24.195116      24.198959      24.191450      24.118868      24.115614      24.187965      24.249754      24.253473      24.305334      24.301378      24.343401      24.376471      24.380907      24.347597      24.352013      24.385574      24.390471      24.356644      24.313866      24.261490      24.257387      24.309498      24.333275      24.279716      24.274897      24.328140      24.323191      24.270250      24.265779      24.318430      24.395592      24.361486      24.366537      24.400932      24.406487      24.371788      24.377237      24.412251      24.458109      24.438984      24.432907      24.451721      24.445566      24.427052      24.421421      24.439648      24.455845      24.450918      24.457123      24.462334      24.469082      24.463577      24.470272      24.476080      24.439276      24.443668      24.449621      24.444967      24.433971      24.416023      24.410862      24.428545      24.423370      24.405939      24.401262      24.418453      24.428692      24.433849      24.437992      24.432596      24.427486      24.422668      24.419205      24.423809      24.413797      24.396835      24.392662      24.409409      24.405291      24.388746      24.385092      24.401445      24.410851      24.413925      24.418146      24.414883      24.410007      24.407108      24.403664      24.406401      24.403107      24.400129      24.397673      24.400517      24.391598      24.388889      24.373156      24.375731      24.378580      24.394596      24.397881      24.381702      24.357918      24.325851      24.323051      24.354958      24.352255      24.349815      24.318188      24.320496      24.279772      24.277594      24.227381      24.229431      24.231699      24.282183      24.284824      24.234184      24.290785      24.239792      24.236883      24.287693      24.328894      24.361134      24.364599      24.332172      24.335686      24.368313      24.372272      24.339430      24.297632      24.294100      24.242908      24.246231      24.184664      24.112530      24.109621      24.181551      24.178627      24.175900      24.104338      24.106888      24.024460      24.022081      23.929480      23.931688      23.934053      24.027004      24.029715      23.936569      23.834177      23.831846      23.722542      23.724695      23.611818      23.501257      23.499413      23.609829      23.607950      23.497669      23.496035      23.606192      23.718615      23.720514      23.829655      23.827604      23.825699      23.823942      23.715218      23.716848      23.604553      23.494511      23.493101      23.603039      23.601654      23.491810      23.490639      23.600399      23.712378      23.713726      23.822336      23.820883      23.922239      23.923803      24.015982      24.014301      24.095999      24.166985      24.168907      24.097797      24.099789      24.171036      24.173368      24.101971      24.019873      23.927425      23.925533      24.017839      24.010357      23.918564      23.917685      24.009411      24.090761      24.161388      24.162470      24.091772      24.092983      24.163763      24.165270      24.094393      24.012804      24.011488      23.919619      23.920845      23.819584      23.818445      23.710112      23.711170      23.599277      23.489592      23.488670      23.598291      23.597443      23.487877      23.487215      23.596733      23.708437      23.709200      23.817463      23.816645      23.815987      23.815493      23.707367      23.707825      23.596163      23.486681      23.486282      23.595736      23.595449      23.486015      23.485880      23.595306      23.706905      23.707060      23.815165      23.814999      23.915916      24.007515      24.007706      23.916094      23.916977      23.916447      24.008085      24.008654      24.089949      24.089340      24.159870      24.160522      24.159437      24.088934      24.088730      24.159220      24.219107      24.21