<VTKFile type="UnstructuredGrid" version="1.0" byte_order="LittleEndian" header_type="UInt64">
  <UnstructuredGrid>
    <Piece NumberOfPoints="40574" NumberOfCells="18683">
      <CellData Scalars="Scalars_">
        <DataArray type="Float32" Name="Scalars_" format="ascii">
     18.457008      18.457165      18.528210      18.528051      18.703732      18.965891      18.966064      18.703896      18.704222      18.966412      18.966928      18.704710      18.528996      18.528524      18.457474      18.457935      18.458548      18.459305      18.530390      18.529617      18.705357      18.967613      18.968462      18.706160      18.707111      18.969471      18.970634      18.708210      18.532362      18.531307      18.460205      18.461241      18.462408      18.463697      18.534864      18.533550      18.709446      18.971949      18.973402      18.710815      18.712307      18.974989      18.976700      18.713913      18.537834      18.536295      18.465101      18.466612      18.468216      18.469906      18.541191      18.539469      18.715622      18.978523      18.980448      18.717422      18.719305      18.982460      18.984550      18.721252      18.544842      18.542986      18.471666      18.473484      18.475344      18.477232      18.548670      18.546741      18.723251      18.986702      18.988899      18.725286      18.727343      18.991127      18.993366      18.729401      18.552546      18.550611      18.479130      18.481018      18.482880      18.484694      18.556324      18.554457      18.731440      18.995602      18.997810      18.733442      18.735386      18.999971      19.002064      18.737249      18.559841      18.558125      18.486437      18.488091      18.489632      18.491035      18.562914      18.561445      18.739008      19.004063      19.005943      18.740637      18.742113      19.007683      19.009256      18.743412      18.565344      18.564222      18.492277      18.493332      18.494167      18.494759      18.566917      18.566252      18.744505      19.010635      19.011793      18.745363      18.745956      19.012697      19.013321      18.746258      18.567404      18.567312      18.495077      18.495090      18.737408      19.007086      19.004267      18.734169      18.553370      18.480335      18.483944      18.556879      18.559818      18.486977      18.489473      18.562220      18.742229      18.740084      19.009350      19.011099      19.012367      18.743881      18.745077      19.013189      19.013599      19.013634      18.746233      18.745850      18.566559      18.567163      18.494768      18.494080      18.492989      18.565556      18.564121      18.491465      18.996820      19.000858      18.730326      18.725845      18.544485      18.549250      18.476116      18.471251      18.459427      18.465700      18.539040      18.532875      18.714819      18.720688      18.992119      18.986715      18.973639      18.980568      18.708199      18.700792      18.518232      18.525951      18.452393      18.444561      18.426357      18.435894      18.509682      18.500261      18.683453      18.692556      18.965889      18.957281      18.592241      18.869524      18.852571      18.574823      18.389105      18.314270      18.332102      18.406824      18.423378      18.348768      18.364307      18.438799      18.623592      18.608484      18.885290      18.899910      18.913429      18.637606      18.650558      18.925884      18.937317      18.947769      18.673443      18.662493      18.478659      18.489933      18.415911      18.404520      18.392147      18.466404      18.453129      18.378756      18.814936      18.834389      18.556194      18.536316      18.350023      18.370184      18.295238      18.274969      18.230591      18.253431      18.328588      18.305845      18.492653      18.515148      18.794167      18.772036      18.723503      18.748497      18.468788      18.443520      18.256296      18.281759      18.206415      18.180866      18.125523      18.153913      18.229416      18.201088      18.388596      18.416801      18.697008      18.668959      22.586760      22.832417      22.795448      22.553450      22.288113      21.999815      22.026850      22.318073      22.343414      22.050013      22.069796      22.364769      22.637903      22.614651      22.863169      22.888622      23.116169      23.088104      23.287861      23.319283      23.496052      23.643959      23.601025      23.459940      23.416197      23.549141      23.486893      23.363575      23.203836      23.249754      23.054077      23.013063      22.963833      22.904915      23.083055      23.148790      23.300611      23.412632      23.324392      23.225588      23.136488      23.219780      23.095757      23.030958      22.911869      23.004797      22.834536      22.750557      22.559715      22.344332      22.410702      22.635063      22.698235      22.751163      22.513786      22.466650      22.211189      22.252781      21.968327      21.931713      21.889183      22.162283      22.104815      21.839815      21.548304      21.230831      21.268267      21.590942      21.628174      21.660667      21.330757      21.301416      20.953423      20.980537      20.613041      20.587358      20.559111      20.923214      20.889568      20.528059      20.151211      20.180626      19.794121      19.765631      19.380413      19.008553      19.036518      19.408480      19.434742      19.062828      19.087551      19.459284      19.845135      20.232573      20.207689      19.820581      19.888954      20.276405      20.255432      19.867891      19.482189      19.110744      19.132469      19.503532      19.523386      19.152781      19.171734      19.541819      19.926367      19.908417      20.295620      20.313189      20.694120      21.063585      21.046165      20.676754      20.636377      20.657558      21.026659      21.004862      21.356712      21.379646      21.713673      21.688999      21.735117      21.399879      21.417690      21.753710      21.769770      21.433323      21.446991      21.783581      21.795382      21.805382      21.469154      21.458879      21.105064      21.115778      20.747814      20.736532      20.723892      21.092882      21.079105      20.709793      20.329216      20.343794      19.958038      19.942883      19.558893      19.189381      19.205769      19.574669      19.589201      19.220947      19.234966      19.602545      19.984543      20.368948      20.357012      19.971903      20.006390      20.389273      20.379679      19.996017      19.614756      19.247869      19.259703      19.625885      19.635981      19.270510      19.280336      19.645090      20.024044      20.015715      20.397797      20.405310      20.781063      21.146070      21.140194      20.774376      20.757826      20.766655      21.133244      21.125137      21.477961      21.485426      21.820686      21.813763      21.826288      21.491661      21.496771      21.830694      22.146145      22.441982      22.438723      22.142361      22.130789      22.137291      22.434072      22.427856      22.704205      22.710285      22.965475      22.959358      22.969696      22.714643      22.717489      22.972261      23.206125      23.203663      23.416447      23.419052      23.611115      23.782467      23.778437      23.608028      23.602627      23.771706      23.761826      23.594538      23.404816      23.411808      23.199375      23.192987      23.184181      23.172577      23.382238      23.395102      23.583332      23.748280      23.730465      23.568508      23.549486      23.707691      23.679163      23.525597      23.344965      23.365723      23.157736      23.139137      22.909546      22.926580      22.673006      22.657171      22.382671      22.086618      22.100842      22.397575      22.409864      22.112776      22.122683      22.419867      22.696163      22.951065      22.940268      22.685873      22.711363      22.962759      22.966616      22.714539      22.442183      22.149864      22.148216      22.439749      22.436686      22.145947      22.143118      22.433064      22.703169      22.707548      22.958242      22.953150      23.182989      23.188740      23.399229      23.392887      23.583229      23.754536      23.761797      23.590080      23.596260      23.768324      23.773973      23.601648      23.409927      23.404945      23.193895      23.198360      23.202032      23.204788      23.417208      23.414061      23.606106      23.778587      23.781975      23.609478      23.611580      23.783924      23.784185      23.612206      23.419893      23.419210      23.206497      23.207003      22.973379      22.719000      22.719332      22.973228      22.971962      22.969719      22.716990      22.718622      22.444859      22.443914      22.150824      22.151016      22.150364      22.444923      22.444004      22.148775      21.834013      21.500845      21.503969      21.836342      21.837769      21.838375      21.507660      21.506218      21.158012      21.160318      20.798731      20.795557      20.791594      21.154911      21.150953      20.786781      20.411871      20.417536      20.037926      20.031431      19.653259      19.289223      19.297213      19.660538      19.666965      19.304350      19.310673      19.672588      20.048422      20.426382      20.422356      20.043573      20.055902      20.432245      20.429663      20.052517      19.677446      19.316223      19.321041      19.681583      19.685040      19.325165      19.328636      19.687859      20.060719      20.058622      20.434174      20.435493      20.804514      21.162697      21.163025      20.804008      20.801163      20.802906      21.162771      21.161886      21.508364      21.508389      21.837408      21.838232      21.835962      21.507790      21.506618      21.833954      21.831436      21.504927      21.502762      21.828459      21.825069      21.821310      21.497183      21.500166      21.158678      21.156469      20.801456      20.802900      20.803919      21.160479      21.161833      20.804470      20.436249      20.436476      20.063200      20.062231      19.690077      19.331493      19.333775      19.691734      19.692869      19.335518      19.336760      19.693521      20.063662      20.435513      20.436216      20.063663      20.062405      20.432911      20.434397      20.063231      19.693724      19.337536      19.337881      19.693514      19.692928      19.337831      19.337420      19.691996      20.059717      20.061222      20.431087      20.428961      20.792162      21.144341      21.147795      20.794941      20.799623      20.797440      21.150991      21.153894      21.493855      21.490219      21.812853      21.817225      21.808231      21.486311      21.482168      21.803398      22.106516      22.390539      22.396740      22.112036      22.122469      22.117367      22.402767      22.408588      22.674995      22.668474      22.914238      22.921434      22.906866      22.661764      22.654902      22.899361      23.123945      23.132071      23.337626      23.328907      23.514681      23.681854      23.691664      23.523964      23.533150      23.701385      23.710968      23.542194      23.354704      23.346239      23.140078      23.147924      23.155565      23.162951      23.370983      23.362968      23.551044      23.720354      23.729481      23.559643      23.567923      23.738277      23.746660      23.575813      23.386013      23.378687      23.170023      23.176725      22.947556      22.941528      22.692984      22.698294      22.428944      22.139788      22.136009      22.424385      22.419441      22.131834      22.127306      22.414160      22.681284      22.928415      22.935131      22.687296      24.581924      24.561251      24.564739      24.586731      24.602318      24.610704      24.603920      24.596405      24.588840      24.595638      24.586174      24.579967      24.567129      24.575264      24.555656      24.548389      24.539799      24.557831      24.547630      24.530178      24.519768      24.508768      24.525351      24.536745      24.548075      24.536346      24.541086      24.553078      24.564695      24.559368      24.570065      24.575788      24.574320      24.564976      24.553375      24.562929      24.551073      24.538889      24.529051      24.541357      24.523201      24.510838      24.483475      24.495834      24.507973      24.535313      24.547047      24.519775      24.531101      24.541779      24.568760      24.558256      24.576000      24.585075      24.594990      24.586254      24.595509      24.603823      24.611277      24.603481      24.586729      24.560339      24.551609      24.578339      24.466278      24.514538      24.523548      24.475510      24.415318      24.342031      24.332573      24.405933      24.395739      24.322397      24.311668      24.384920      24.445303      24.456141      24.504522      24.493732      24.482355      24.433937      24.422188      24.470549      24.458443      24.446146      24.397993      24.410173      24.350138      24.338135      24.265654      24.277426      24.289076      24.362000      24.373631      24.300522      24.213690      24.112209      24.101324      24.202492      24.191114      24.179632      24.079142      24.090281      23.974010      23.963268      23.831121      23.841419      23.851631      23.984665      23.995173      23.861704      23.871572      23.881168      24.015459      24.005465      24.122856      24.224621      24.235186      24.133173      24.143057      24.245258      24.254700      24.152384      24.034172      23.899200      23.890408      24.025063      24.185825      24.283871      24.278439      24.182486      24.068714      23.936186      23.936676      24.070398      24.069733      23.935190      23.932035      24.067097      24.184536      24.285229      24.285938      24.186350      24.175426      24.277372      24.282238      24.180782      24.062817      23.927471      23.921726      24.057167      24.050381      23.914993      23.907436      24.042660      24.161007      24.263342      24.270979      24.168756      24.537392      24.531279      24.483583      24.490194      24.430716      24.423668      24.350578      24.357975      24.368143      24.363943      24.436136      24.439533      24.497477      24.494974      24.541479      24.543041      24.536036      24.541473      24.497156      24.493351      24.438253      24.440432      24.370167      24.369524      24.357731      24.365616      24.432297      24.421711      24.471872      24.485250      24.525820      24.509722      24.583347      24.582872      24.557463      24.560152      24.553221      24.536554      24.555180      24.574184      24.588291      24.567398      24.574415      24.596825      24.609331      24.612324      24.600695      24.599291      24.615938      24.621389      24.618910      24.614580      24.600838      24.577213      24.576603      24.601189      24.598585      24.573240      24.567673      24.593607      24.609835      24.616991      24.620539      24.614153      24.563232      24.565611      24.589231      24.588879      24.607483      24.606174      24.615614      24.618191      24.614040      24.617887      24.605654      24.599985      24.576855      24.585016      24.556847      24.545534      24.503443      24.528181      24.563452      24.543678      24.573593      24.589634      24.605848      24.592346      24.544485      24.572363      24.550665      24.519434      24.479418      24.516195      24.469694      24.424973      23.767216      23.527508      23.248981      23.566700      23.712311      23.710377      23.917751      23.892038      24.043842      24.081181      24.210648      24.170094      24.079914      23.937536      23.752527      23.934389      24.081036      24.197372      24.293112      24.198759      24.292658      24.366913      24.431479      24.370209      24.425102      24.478231      24.506990      24.457779      24.394270      24.357794      24.273739      24.313250      24.339537      24.355762      24.428604      24.416639      24.476669      24.522758      24.528051      24.485025      24.484118      24.523836      24.510050      24.473866      24.425797      24.431736      24.363857      24.363146      24.282606      24.180122      24.167145      24.277044      24.262794      24.241535      24.117990      24.145164      23.997286      23.963346      23.771170      23.812237      23.857229      23.888248      24.050716      24.029175      24.087217      24.069870      23.920952      23.956589      23.984453      23.998375      24.090219      24.095789      24.184340      24.163404      24.221151      24.254198      24.273077      24.191090      24.188097      24.281403      24.354450      24.337173      24.386658      24.411016      24.454165      24.486389      24.452013      24.424206      24.382286      24.405460      24.345001      24.326380      24.300602      24.350660      24.308720      24.266142      24.206579      24.127869      24.149330      24.234125      24.254501      24.268930      24.175760      24.164976      24.056423      24.064232      23.933363      23.927794      23.918993      24.044666      24.028231      23.906399      23.889359      23.867119      23.977764      24.006264      24.099453      24.170389      24.123783      24.062733      24.016106      24.064634      23.990376      23.957666      23.896328      23.803438      23.838810      23.941568      22.966570      22.672846      22.269852      22.689169      22.985931      23.101219      23.245159      23.172075      23.333988      23.369450      23.475948      23.472878      23.393095      23.256826      22.995590      23.199207      23.686728      23.642527      23.469358      23.553917      23.590714      23.566500      23.642897      23.689756      23.772295      23.706831      23.759871      23.840492      23.885155      23.897911      23.783489      23.795897      23.500557      23.734165      23.793301      23.590242      23.672356      23.845345      23.884012      23.742556      23.356083      23.568634      23.457964      23.192776      23.029655      23.338966      23.208885      22.844982      21.823820      22.390888      22.651358      22.192802      22.458227      22.864817      23.098122      22.787922      21.993784      22.420050      21.950834      21.309303      21.002598      21.644398      21.115042      20.229153      19.953999      15.538868      18.496675      20.805334      19.738897      20.802969      21.215765      21.734238      21.605515      22.229231      22.237038      21.884827      22.118334      21.798473      21.090475      22.932268      22.905746      22.518408      22.475529      22.684053      22.722456      23.116152      23.065296      23.383131      23.431774      23.685106      23.644445      23.581303      23.534494      23.246964      23.293158      22.468061      22.902754      23.335611      23.077501      23.269505      23.503880      23.444267      23.096199      21.971437      22.627644      23.019270      22.777819      22.539846      22.803619      21.912218      21.179897      18.762358      20.171633      22.339546      22.598295      21.005774      19.502752      15.855167      17.513947      14.449325      13.730836      15.721476      17.236769      16.146708      24.212639      24.142870      24.133175      24.202730      24.260141      24.306330      24.316580      24.270235      24.280666      24.327171      24.338089      24.291416      24.233431      24.222878      24.152887      24.163212      24.079823      24.069757      23.972540      23.982319      23.869761      23.741232      23.732107      23.860296      23.851103      23.723238      23.714645      23.842201      23.953856      23.963047      24.059988      24.050533      24.041410      24.032635      23.936453      23.944986      23.833605      23.706345      23.698355      23.825335      23.817402      23.690689      23.683365      23.809824      23.920458      23.928272      24.024225      24.016195      24.097982      24.166775      24.175180      24.106211      24.123823      24.114830      24.183987      24.193174      24.250408      24.241049      24.286940      24.296444      24.277830      24.232080      24.223518      24.269135      24.304518      24.330528      24.339426      24.313328      24.332178      24.322552      24.348745      24.358467      24.376125      24.366335      24.376095      24.385933      24.366661      24.356947      24.347980      24.357649      24.360260      24.369297      24.365540      24.356495      24.346989      24.332336      24.341343      24.356024      24.365471      24.350760      24.360561      24.375311      24.384861      24.388615      24.378756      24.375000      24.405695      24.409462      24.398857      24.395100      24.385525      24.370731      24.381245      24.396088      24.406977      24.392073      24.403189      24.418165      24.427860      24.416624      24.420406      24.431665      24.428930      24.418962      24.407743      24.417677      24.406744      24.396154      24.386305      24.396851      24.379049      24.368574      24.342188      24.352566      24.363289      24.389874      24.401024      24.374338      24.385691      24.412476      24.424204      24.397322      24.421293      24.409199      24.436176      24.448360      24.466528      24.454296      24.464338      24.476578      24.452291      24.442266      24.430479      24.440479      24.443213      24.455015      24.451136      24.439375      24.429621      24.414560      24.426151      24.441309      24.453190      24.437918      24.449812      24.465219      24.475241      24.479248      24.467041      24.463106      24.499804      24.504015      24.491590      24.487494      24.477343      24.461777      24.473742      24.489500      24.501614      24.485628      24.497343      24.513599      24.524319      24.512106      24.516457      24.528845      24.526495      24.516571      24.504005      24.513992      24.501459      24.488968      24.478924      24.491434      24.473200      24.460716      24.433567      24.445974      24.458469      24.485758      24.498329      24.470993      24.433746      24.421324      24.373463      24.385733      24.326065      24.253832      24.242020      24.313999      24.301989      24.230268      24.218624      24.290085      24.349123      24.396654      24.408941      24.361242      24.384508      24.337149      24.325359      24.372545      24.360802      24.349306      24.302465      24.313789      24.255392      24.244278      24.173822      24.184694      24.195805      24.266752      24.278326      24.207125      24.122610      24.023849      24.013151      24.111584      24.100760      24.090164      23.992361      24.002645      23.889421      23.879477      23.750597      23.760176      23.769949      23.899576      23.909912      23.779892      23.931021      23.800179      23.789978      23.920403      24.034714      24.133812      24.145153      24.045712      24.056810      24.156601      24.168110      24.067968      23.952492      23.941729      23.810459      23.820786      23.672001      23.662148      23.496000      23.505348      23.320122      23.115738      23.107489      23.311312      23.302505      23.099230      23.090992      23.293739      23.477404      23.642578      23.652328      23.486675      23.632929      23.468216      23.459141      23.623405      23.614038      23.604849      23.441429      23.450203      23.267952      23.259611      23.058788      23.066675      23.074688      23.276436      23.285040      23.082802      22.861048      22.619511      22.612429      22.853441      22.845919      22.838501      22.598473      22.605410      22.345098      22.338655      22.059265      22.065207      22.071190      22.351604      22.358150      22.077190      22.371260      22.089140      22.083183      22.364712      22.626629      22.868710      22.876400      22.633757      22.640865      22.884094      22.891758      22.647924      22.384205      22.377768      22.095034      22.100836      21.798386      21.477825      21.473312      21.793226      21.787952      21.782595      21.463902      21.468662      21.132757      21.128593      20.778887      20.782467      20.785892      21.136791      21.140661      20.789135      20.426565      20.423931      20.055862      20.057919      19.690756      19.336678      19.335640      19.689236      19.687468      19.334337      19.332798      19.685482      20.051098      20.053579      20.421091      20.418076      20.414909      20.411625      20.045652      20.048447      19.683308      19.331053      19.329128      19.680973      19.678501      19.327051      19.324848      19.675920      20.039747      20.042744      20.408245      20.404799      20.763577      20.767500      21.115593      21.111174      21.444324      21.760841      21.766275      21.449249      21.454170      21.771730      21.777178      21.459063      21.124327      20.775181      20.771376      21.119986      21.097994      20.751753      20.747866      21.093697      21.425043      21.739744      21.744881      21.429758      21.434557      21.750122      21.755449      21.439421      21.106752      21.102352      20.755682      20.759630      20.401306      20.397793      20.033585      20.036686      19.673258      19.322542      19.320158      19.670534      19.667774      19.317720      19.315250      19.664999      20.027344      20.030462      20.394281      20.390789      20.387337      20.383944      20.021189      20.024246      19.662228      19.312769      19.310295      19.659479      19.656771      19.307848      19.305443      19.654121      20.015265      20.018188      20.380629      20.377405      20.733107      21.077505      21.081369      20.736643      20.744040      20.740294      21.085367      21.089481      21.420431      21.415941      21.729862      21.734734      21.725153      21.411589      21.407391      21.720615      22.015753      22.020628      22.297098      22.291887      22.548500      22.785391      22.791256      22.554041      22.559816      22.797375      22.803732      22.565811      22.308149      22.030947      22.025698      22.302525      22.332300      22.053389      22.047598      22.326052      22.319931      22.041916      22.036360      22.313957      22.810310      22.572010      22.578394      22.817095      22.824068      22.584946      22.591644      22.831209      23.251438      23.051048      23.043478      23.243452      23.235672      23.036095      23.028919      23.228119      23.570309      23.408377      23.416294      23.578573      23.587097      23.424454      23.432838      23.595861      23.393345      23.554632      23.562323      23.400723      23.220810      23.021969      23.015261      23.213760      23.206987      23.008810      23.002630      23.200504      23.379486      23.386261      23.547251      23.540194      23.533476      23.527109      23.366913      23.373032      23.194326      22.996738      22.991146      23.188467      23.182938      22.985867      22.980913      23.177750      23.355730      23.515478      23.521105      23.361143      23.510239      23.350689      23.346029      23.505396      23.500961      23.496941      23.337891      23.341761      23.164351      23.160637      22.964554      22.968105      22.972021      23.168446      23.172916      22.976294      22.760349      22.524788      22.520929      22.756281      22.752550      22.749166      22.514181      22.517391      22.262554      22.259521      21.985373      21.988226      21.991367      22.265896      22.269539      21.994791      22.277685      22.002441      21.998486      22.273472      22.528955      22.764746      22.769459      22.533422      22.538177      22.774481      22.779795      22.543207      22.286905      22.282167      22.006645      22.011087      21.716270      21.403364      21.399519      21.712128      21.708202      21.704506      21.392435      21.395872      21.066868      21.063683      20.720388      20.723326      20.726433      21.070242      21.073792      20.729698      20.374292      20.371304      20.009703      20.012430      19.651545      19.303097      19.300825      19.649057      19.646673      19.298641      19.296558      19.644403      20.004616      20.007093      20.368452      20.365751      20.363213      20.360847      20.000109      20.002285      19.642263      19.294588      19.292744      19.640263      19.638411      19.291035      19.289471      19.636717      19.996262      19.998098      20.358665      20.356676      20.710550      20.712702      21.055374      21.053051      21.380989      21.692230      21.694904      21.383484      21.386230      21.697847      21.701052      21.389217      21.060699      20.717630      20.715065      21.057926      21.047539      20.705431      20.704193      21.046207      21.373642      21.684372      21.685900      21.375071      21.376774      21.687721      21.689835      21.378750      21.050968      21.049128      20.706907      20.708616      20.354887      20.353304      19.993147      19.994610      19.635191      19.288059      19.286808      19.633841      19.632669      19.285725      19.284813      19.631685      19.990818      19.991882      20.351936      20.350788      20.349865      20.349169      19.989317      19.989962      19.630894      19.284077      19.283524      19.630297      19.629896      19.283152      19.282967      19.629696      19.988668      19.988886      20.348701      20.348469      20.701694      21.043520      21.043791      20.701946      20.703197      20.702448      21.044329      21.045135      21.372494      21.371630      21.682222      21.683146      21.681604      21.371052      21.370762      21.681297      21.973722      21.97