<VTKFile type="UnstructuredGrid" version="1.0" byte_order="LittleEndian" header_type="UInt64">
  <UnstructuredGrid>
    <Piece NumberOfPoints="40602" NumberOfCells="20000">
      <CellData Scalars="Scalars_">
        <DataArray type="Float32" Name="Scalars_" format="ascii">
     26.653320      26.653181      26.632212      26.632355      26.599796      26.564650      26.564486      26.599644      26.599342      26.564161      26.563681      26.598894      26.631506      26.631927      26.652908      26.652504      26.651974      26.651325      26.630280      26.630953      26.598307      26.563049      26.562279      26.597589      26.596750      26.561377      26.560356      26.595804      26.628603      26.629492      26.650570      26.649717      26.648777      26.647762      26.626566      26.627625      26.594759      26.559229      26.558010      26.593630      26.592428      26.556709      26.555344      26.591166      26.624266      26.625443      26.646685      26.645554      26.644384      26.643185      26.621790      26.623043      26.589857      26.553923      26.552460      26.588512      26.587141      26.550966      26.549454      26.585752      26.619226      26.620516      26.641964      26.640732      26.639496      26.638264      26.616642      26.617933      26.584358      26.547928      26.546400      26.582964      26.581575      26.544876      26.543364      26.580198      26.614092      26.615360      26.637041      26.635830      26.634640      26.633471      26.611610      26.612841      26.578840      26.541864      26.540388      26.577503      26.576191      26.538935      26.537510      26.574903      26.609230      26.610407      26.632326      26.631208      26.630119      26.629061      26.606962      26.608080      26.573648      26.536114      26.534750      26.572424      26.571230      26.533421      26.532127      26.570072      26.604820      26.605875      26.628031      26.627033      26.626068      26.625134      26.602810      26.603800      26.568947      26.530869      26.529648      26.567858      26.566803      26.528465      26.527321      26.565786      26.600933      26.601854      26.624233      26.623363      26.559689      26.520430      26.519609      26.558968      26.594793      26.617590      26.618196      26.595440      26.596123      26.618837      26.619511      26.596838      26.561245      26.560448      26.521294      26.522196      26.523142      26.562078      26.562950      26.524126      26.525150      26.526217      26.564804      26.563858      26.599194      26.600046      26.622528      26.621725      26.620955      26.598373      26.597589      26.620214      26.518091      26.518829      26.558283      26.557638      26.593603      26.594181      26.617016      26.616474      26.615492      26.615967      26.593061      26.592554      26.556459      26.557030      26.517395      26.516739      26.515553      26.516125      26.555929      26.555435      26.591644      26.592081      26.615049      26.614641      26.613922      26.614265      26.591242      26.590874      26.554562      26.554979      26.515022      26.514532      26.552675      26.512218      26.512037      26.552547      26.589161      26.612349      26.612436      26.589260      26.589392      26.612555      26.612703      26.589554      26.553034      26.552837      26.512434      26.512688      26.512978      26.553267      26.553535      26.513308      26.513676      26.514084      26.554182      26.553841      26.590244      26.590542      26.613613      26.613337      26.613094      26.589981      26.589750      26.612883      26.511780      26.511892      26.552452      26.552387      26.589052      26.589092      26.612291      26.612259      26.612276      26.612255      26.589039      26.589054      26.552347      26.552353      26.511700      26.511650      26.511633      26.511629      26.552370      26.552416      26.589157      26.589094      26.612322      26.612389      26.612583      26.612476      26.589243      26.589346      26.552574      26.552485      26.511663      26.511715      25.724436      25.488972      25.411545      25.677670      25.865366      26.000418      26.016809      25.893215      25.918415      26.031792      26.045435      25.941124      25.803715      25.766331      25.557653      25.618353      25.364944      25.268003      24.865496      25.017363      24.543097      23.903574      23.555304      24.310326      24.039963      23.148050      22.673058      23.726793      24.489485      24.690504      25.157284      25.031261      24.888371      24.727055      23.996906      24.259356      23.365147      22.120693      21.480650      22.948950      22.471796      20.740023      19.903667      21.927343      23.362101      23.698883      24.545818      24.343307      25.000435      25.436050      25.505066      25.119631      25.227533      25.324633      25.625700      25.568239      25.801189      25.834724      25.982565      25.963219      25.942375      25.764698      25.725248      25.920067      26.055134      26.152821      26.159739      26.067623      26.079407      26.090452      26.172567      26.166328      26.234703      26.238186      26.293303      26.291391      26.289425      26.231068      26.227291      26.287411      26.338739      26.339773      26.385330      26.384840      26.428085      26.470085      26.470116      26.428276      26.428490      26.470169      26.470249      26.428724      26.386349      26.341820      26.340799      26.385832      26.387424      26.343828      26.342829      26.386879      26.428982      26.470354      26.470488      26.429266      26.429575      26.470652      26.470848      26.429914      26.388561      26.387983      26.344818      26.345800      26.300341      26.250498      26.247662      26.298672      26.295153      26.296944      26.244667      26.241508      26.178448      26.183966      26.110300      26.100748      26.119125      26.189123      26.193933      26.127251      26.134710      26.198410      26.202572      26.141550      26.147810      26.153540      26.210045      26.206442      26.258129      26.260416      26.306511      26.305033      26.303516      26.255722      26.253181      26.301954      26.346777      26.347750      26.389774      26.389156      26.430281      26.471079      26.471342      26.430681      26.431114      26.471643      26.471981      26.431581      26.391079      26.349701      26.348722      26.390413      26.392496      26.351681      26.350685      26.391773      26.432085      26.472359      26.472775      26.432625      26.433207      26.473232      26.473732      26.433826      26.394039      26.393250      26.352692      26.353722      26.312160      26.268612      26.266680      26.310772      26.307955      26.309372      26.264679      26.262596      26.213402      26.216541      26.163597      26.158787      26.168018      26.219484      26.222258      26.172096      26.116816      26.054649      26.045469      26.110723      26.096548      26.103994      26.035177      26.023626      25.935781      25.953640      25.854679      25.827295      25.878538      25.969362      25.983208      25.899328      25.798918      25.767986      25.631393      25.676844      25.526863      25.341627      25.247932      25.461065      25.383699      25.137106      25.006100      25.292789      25.516386      25.578321      25.732157      25.690670      25.642672      25.587212      25.360077      25.444172      25.186062      24.851374      24.668831      25.060905      24.914349      24.453753      24.200726      24.743015      25.148806      25.262295      25.523230      25.449564      25.671818      25.718777      25.866428      25.836956      25.961519      26.057817      26.069027      25.979782      25.996101      26.079157      26.088299      26.010656      25.915503      25.795893      25.759920      25.892494      26.038593      25.979256      25.969851      26.031799      26.088213      26.140221      26.143904      26.093172      26.097734      26.147366      26.150646      26.101965      26.050297      26.044724      25.987602      25.995054      25.935493      25.925436      25.857075      25.870695      25.799545      25.720732      25.695944      25.781122      25.759668      25.666824      25.632530      25.734606      25.823225      25.841379      25.913996      25.900921      25.885914      25.868633      25.777649      25.802158      25.705256      25.592066      25.544254      25.670820      25.630367      25.487711      25.420807      25.582804      25.715759      25.749086      25.848686      25.825621      25.917450      25.995415      26.006197      25.933262      25.947084      25.959198      26.024229      26.015745      26.076815      26.082787      26.136274      26.132017      26.127396      26.070204      26.062853      26.122351      26.175871      26.224884      26.227385      26.179384      26.182671      26.185766      26.232088      26.229778      26.274117      26.275890      26.317722      26.316317      26.314926      26.272318      26.270487      26.313543      26.354774      26.355854      26.395729      26.394865      26.434490      26.474274      26.474857      26.435196      26.435944      26.475485      26.476156      26.436737      26.397577      26.358103      26.356962      26.396633      26.399599      26.360495      26.359280      26.398567      26.437576      26.476871      26.477633      26.438461      26.439394      26.478437      26.479288      26.440371      26.401804      26.400679      26.361750      26.363047      26.323572      26.282940      26.281168      26.322065      26.319145      26.320591      26.279408      26.277651      26.234327      26.236515      26.191500      26.188700      26.194191      26.238665      26.240788      26.196796      26.199337      26.242897      26.245003      26.201828      26.204285      26.206722      26.249235      26.247112      26.288380      26.290251      26.329973      26.328312      26.326693      26.286541      26.284729      26.325113      26.364388      26.365774      26.404198      26.402977      26.441397      26.480183      26.481121      26.442469      26.443590      26.482105      26.483135      26.444757      26.406784      26.368689      26.367207      26.405466      26.409565      26.371794      26.370216      26.408150      26.445972      26.484207      26.485325      26.447233      26.448542      26.486486      26.487690      26.449896      26.412540      26.411028      26.373421      26.375095      26.337074      26.298113      26.296085      26.335230      26.331680      26.333431      26.294102      26.292156      26.251375      26.253542      26.211580      26.209150      26.214018      26.255735      26.257959      26.216471      26.173561      26.129179      26.126125      26.170837      26.165346      26.168104      26.123020      26.119843      26.072512      26.076235      26.027636      26.023193      26.031836      26.079817      26.083288      26.035841      25.986771      25.982079      25.930403      25.935982      25.883341      25.828672      25.820498      25.876619      25.869205      25.811338      25.800989      25.860947      25.917711      25.924345      25.977072      25.971682      25.965826      25.959404      25.902193      25.910376      25.851671      25.789196      25.775665      25.841166      25.829184      25.760040      25.741898      25.815428      25.882576      25.892994      25.952305      25.944387      26.001751      26.007816      26.060110      26.055399      26.105921      26.153778      26.156790      26.109646      26.113186      26.159708      26.162554      26.116573      26.068613      26.018456      26.013355      26.064495      23.303928      23.001572      22.543322      22.902597      23.238417      23.550156      23.850597      23.587091      23.873043      24.097116      24.299416      24.107536      23.902634      23.632957      23.377207      23.684975      23.937096      24.123669      24.304890      24.143660      24.312969      24.451841      24.575624      24.453556      24.587311      24.693867      24.806461      24.714098      24.601915      24.457697      24.299870      24.465488      24.620514      24.765076      24.864655      24.737534      24.833904      24.913391      25.014723      24.946814      25.052994      25.110590      25.201185      25.152691      25.094343      24.983488      24.899433      25.023970      24.938917      24.835962      24.674099      24.797609      24.644213      24.478254      24.305157      24.497356      24.318781      24.094419      23.837780      24.101528      24.341925      24.559814      24.711184      24.524134      25.034252      24.880854      24.756336      24.932854      25.090885      25.232040      25.297209      25.172606      25.240458      25.351509      25.396851      25.296896      25.187807      25.118204      24.983700      25.068745      25.139174      25.245621      25.293753      25.197613      25.246218      25.286760      25.367603      25.333939      25.416258      25.444033      25.516384      25.493599      25.466705      25.383272      25.343945      25.434814      25.518919      25.596941      25.617495      25.544598      25.566397      25.585003      25.650225      25.635082      25.700071      25.712376      25.771767      25.761755      25.750385      25.685925      25.669546      25.737366      25.722353      25.704933      25.628117      25.650465      25.572790      25.488529      25.452425      25.544279      25.510496      25.409393      25.357971      25.470335      25.570753      25.660786      25.684608      25.601818      24.858196      24.559258      24.336050      24.688967      24.981741      25.222967      25.315620      25.107988      25.213640      25.393507      25.459002      25.302071      25.116947      24.899040      24.744810      24.999296      25.296938      25.133846      25.027245      25.215065      25.376118      25.514107      25.560522      25.438166      25.490215      25.599670      25.632755      25.533943      25.422470      25.296396      25.222540      25.365309      24.422527      24.605455      24.810247      24.661884      24.873360      24.992332      25.153702      25.059404      24.808819      24.945791      24.729631      24.555923      24.264753      24.482265      24.200684      23.931629      23.209976      23.605387      24.001350      23.682449      24.092115      24.345942      24.643621      24.444355      23.914215      24.204012      23.785372      23.414862      22.829870      23.296534      22.731091      22.151739      20.522659      19.605703      18.400261      19.499659      20.490614      21.373720      22.083193      21.348072      22.057518      22.669729      23.153891      22.643278      22.070852      21.435032      20.606735      21.370363      23.124184      22.681583      22.118578      22.648512      23.126190      23.553112      23.882057      23.523891      23.851189      24.152979      24.376080      24.120443      23.837162      23.525225      23.144672      23.515480      21.304861      21.984772      22.413385      21.817661      22.295818      22.813431      23.184057      22.738169      21.536043      22.195551      21.666128      20.901392      20.214607      21.093349      20.478777      19.477701      16.815708      18.268812      19.151718      17.871346      18.855867      19.974842      20.735903      19.767540      17.196886      18.599503      17.510342      15.912399      14.559830      16.337433      15.101587      13.167709      2.686028      1.508536      0.249610      1.405449      2.611497      3.879444      5.225906      3.921289      5.325625      6.673415      8.233167      6.834522      5.520579      4.054832      2.850069      4.282011      5.813444      7.093681      8.786887      7.455164      9.220321      11.125267      12.602249      10.616220      12.130370      14.090829      15.550130      13.699820      11.749570      10.218797      8.460343      9.919196      11.504662      13.277276      15.119006      13.421697      15.278952      16.955629      18.269733      16.803333      18.216311      19.457176      20.517342      19.486546      18.250469      16.746817      15.071568      16.793941      15.141684      13.359573      11.437757      13.255875      11.411845      9.744617      8.121587      9.702472      8.128778      6.619835      5.226784      6.674988      8.243909      9.958589      11.582665      9.773715      15.665938      13.595685      11.853467      13.974788      16.144617      18.166597      19.390512      17.634302      18.946550      20.430197      21.301973      20.063934      18.609062      17.228947      15.336838      16.952112      18.379236      19.784971      20.767727      19.594049      20.608255      21.451900      22.266167      21.586235      22.428465      22.967661      23.564970      23.144402      22.638479      21.779274      20.999123      22.030725      22.892981      23.602804      23.951496      23.357687      23.745064      24.067642      24.486050      24.242832      24.650719      24.830896      25.112740      24.981638      24.825777      24.435612      24.178986      24.640600      24.420784      24.160120      23.508890      23.873096      23.185900      22.336260      21.670448      22.688095      22.094645      20.875908      19.930368      21.388586      22.561708      23.486336      23.851408      23.075827      12.860803      10.387846      9.231388      11.588113      14.360441      17.307207      18.447277      15.710752      17.031227      19.495499      20.433430      18.269794      15.727566      13.054358      11.658167      14.277740      18.411699      16.104078      14.585048      17.124105      19.393322      21.251455      21.950861      20.383436      21.232370      22.547617      23.055359      21.952528      20.550617      18.812342      17.529095      19.558662      8.808140      10.264189      12.263597      10.706250      12.859717      14.523208      16.771061      15.239105      12.093343      13.639985      11.315128      9.904531      7.970160      9.279861      7.469761      6.236896      4.050578      5.099820      6.765719      5.657207      7.429810      8.613410      10.690032      9.411217      7.175835      8.243343      6.343966      5.347833      3.698236      4.636885      3.082518      2.189984      -0.958751      -2.169893      -2.957939      -1.762753      -0.518081      0.792775      1.648324      0.308230      1.200425      2.574256      3.575579      2.162977      0.839002      -0.414854      -1.323385      -0.092833      2.919526      1.605473      0.559844      1.841359      3.201030      4.658100      5.828629      4.320530      5.528412      7.095275      8.467876      6.832894      5.328623      3.932183      2.727498      4.079589      -2.046718      -0.933500      0.205630      -0.919901      0.243395      1.387903      2.624846      1.454385      -0.659787      0.361428      -0.828175      -1.832137      -2.969831      -1.976768      -3.095174      -4.083238      -5.892137      -5.014565      -3.903228      -4.780425      -3.654956      -2.773089      -1.614272      -2.506369      -4.117711      -3.339801      -4.481035      -5.254050      -6.377047      -5.604270      -6.718336      -7.495009      25.583830      25.635944      25.641510      25.589874      25.537695      25.484980      25.477768      25.531105      25.523870      25.469772      25.460844      25.515869      25.570070      25.577261      25.629953      25.623463      25.676064      25.681950      25.733252      25.727882      25.778921      25.829174      25.833725      25.783848      25.788538      25.838099      25.842314      25.793022      25.743105      25.738312      25.687441      25.692593      25.697451      25.702047      25.752010      25.747663      25.797319      25.846384      25.850319      25.801449      25.805416      25.854122      25.857796      25.809227      25.760126      25.756163      25.706406      25.710543      25.660513      25.610073      25.605528      25.656183      25.646711      25.651592      25.600672      25.595469      25.543737      25.549307      25.497515      25.491529      25.503008      25.554464      25.559252      25.508070      25.456545      25.404692      25.398989      25.451180      25.438856      25.445309      25.392694      25.385721      25.332132      25.339687      25.286289      25.278093      25.293566      25.346447      25.352526      25.300056      25.247292      25.240353      25.186817      25.194246      25.140924      25.087343      25.078821      25.132969      25.123852      25.068995      25.057611      25.113359      25.168697      25.223612      25.232512      25.178362      25.144758      25.201805      25.213459      25.157591      25.101223      25.044369      25.028883      25.087111      25.070616      25.010685      24.989193      25.051229      25.112408      25.129845      25.188347      25.172707      25.232113      25.290621      25.303135      25.246113      25.258238      25.268812      25.323647      25.314053      25.369244      25.377953      25.431732      25.423815      25.414957      25.359415      25.348238      25.404974      25.393631      25.335436      25.320660      25.380646      25.348249      25.365664      25.303486      25.283386      25.216623      25.239750      25.174416      25.147909      25.196812      25.259392      25.276178      25.215843      25.154419      25.132906      25.067673      25.091908      25.028322      24.963692      24.933292      25.001123      24.968679      24.896908      24.853193      24.929819      25.004505      25.077206      25.107460      25.038877      24.913746      24.997734      25.041069      24.963305      24.883097      24.800499      24.736797      24.826746      24.758593      24.659601      24.565861      24.675972      24.781593      24.853945      24.945583      24.882633      24.979080      25.070980      25.117714      25.033493      25.078697      25.116377      25.189243      25.156660      25.231686      25.259718      25.327869      25.303867      25.275444      25.198324      25.158442      25.241615      25.320700      25.349228      25.419853      25.395920      25.467531      25.535795      25.552431      25.487520      25.504629      25.566792      25.579283      25.519377      25.457586      25.393789      25.373323      25.440193      25.411280      25.472563      25.485558      25.426334      25.439386      25.450794      25.506950      25.496925      25.553308      25.562136      25.616379      25.608583      25.599930      25.543402      25.532185      25.590239      25.646812      25.701992      25.709301      25.655210      25.662796      25.669708      25.722149      25.715984      25.768183      25.773716      25.824415      25.819412      25.814117      25.762257      25.755857      25.808475      25.741219      25.795826      25.802408      25.748886      25.693924      25.637426      25.626841      25.684935      25.674824      25.614798      25.600981      25.663353      25.723166      25.732706      25.788620      25.780655      25.836035      25.842730      25.895166      25.889488      25.941172      25.991209      25.995440      25.946043      25.950653      25.999504      26.003433      25.955050      25.905437      25.854570      25.848875      25.900459      25.859896      25.910156      25.914663      25.864916      25.869684      25.874243      25.923182      25.918995      25.967329      25.971203      26.018265      26.014656      26.010992      25.963360      25.959276      26.007256      26.054079      26.099716      26.102913      26.057524      26.060932      26.064310      26.109276      26.106098      26.150097      26.153091      26.195690      26.192863      26.190054      26.147108      26.144127      26.187265      26.138172      26.181744      26.184496      26.141150      26.096504      26.050589      26.047039      26.093266      26.089994      26.043413      26.039690      26.086674      26.132196      26.135191      26.179007      26.176281      26.218945      26.260220      26.262516      26.221441      26.223965      26.226519      26.267220      26.264849      26.304447      26.306644      26.344919      26.342890      26.340904      26.302294      26.300180      26.338966      26.376818      26.378588      26.415705      26.414099      26.451294      26.488935      26.490225      26.452740      26.454227      26.491554      26.492926      26.455759      26.419052      26.417356      26.380405      26.382267      26.384172      26.386122      26.422571      26.420790      26.457331      26.494335      26.495785      26.458944      26.460594      26.497271      26.498791      26.462280      26.426247      26.424391      26.388109      26.390133      26.353445      26.351257      26.313477      26.315826      26.277054      26.237019      26.234352      26.274546      26.272070      26.231712      26.229101      26.269627      26.308884      26.346991      26.349104      26.311161      26.323040      26.360189      26.362480      26.325483      26.287313      26.247866      26.245136      26.284725      26.282148      26.242414      26.239708      26.279589      26.318207      26.320614      26.357916      26.355667      26.392189      26.394278      26.430056      26.428137      26.464001      26.500343      26.501928      26.465752      26.467531      26.503538      26.505173      26.469332      26.433969      26.432003      26.396389      26.398521      26.400667      26.402821      26.437948      26.435955      26.471149      26.506828      26.508495      26.472980      26.474815      26.510172      26.511850      26.476648      26.441933      26.439943      26.404972      26.407114      26.371677      26.335255      26.332830      26.369389      26.364782      26.367088      26.330387      26.327934      26.289906      26.292496      26.253315      26.250595      26.256020      26.295074      26.297628      26.258696      26.218443      26.215651      26.174007      26.176908      26.134169      26.090319      26.087208      26.131163      26.128109      26.084042      26.080830      26.125017      26.168097      26.209978      26.212826      26.171066      26.156094      26.198534      26.201389      26.159100      26.162106      26.204252      26.207117      26.165108      26.077581      26.121901      26.118761      26.074301      26.070995      26.115610      26.112446      26.067665      25.974997      26.021824      26.025337      25.978718      25.982374      26.028811      26.032242      25.985968      25.890938      25.938843      25.935066      25.886955      25.882856      25.931204      25.927246      25.878624      25.946144      25.898569      25.894808      25.942535      25.989500      26.035627      26.038963      25.992968      25.996365      26.042244      26.045458      25.999685      25.953094      25.949665      25.902227      25.905773      25.909204      25.912512      25.959644      25.956425      26.002918      26.048595      26.051647      26.006052      26.009077      26.054596      26.057426      26.011976      25.965706      25.918713      25.915686      25.962744      25.921581      25.968521      25.971172      25.924278      25.926788      25.929098      25.975924      25.973644      26.019770      26.022015      26.067276      26.065069      26.062681      26.017338      26.014734      26.060127      26.104601      26.148048      26.150488      26.107100      26.109440      26.111605      26.154894      26.152775      26.194965      26.197035      26.237923      26.235912      26.233747      26.192736      26.190363      26.231443      26.185249      26.226492      26.229019      26.187860      26.145475      26.101963      26.099199      26.142786      26.139996      26.096329      26.093363      26.137117      26.179758      26.182543      26.223877      26.221189      26.261333      26.300150      26.302622      26.263918      26.266436      26.268873      26.307373      26.305037      26.342306      26.344536      26.380461      26.378345      26.376167      26.340006      26.337650      26.373940      26.409237      26.411327      26.445856      26.443909      26.478472      26.513519      26.515175      26.480274      26.482044      26.516804      26.518398      26.483772      26.449633      26.447769      26.413376      26.415369      26.417292      26.419130      26.453156      26.451431      26.485445      26.519941      26.521425      26.487049      26.488569      26.522833      26.524153      26.489992      26.456310      26.454786      26.420868      26.422489      26.387999      26.386284      26.350662      26.352461      26.315655      26.277479      26.275532      26.313778      26.311762      26.273438      26.271212      26.309622      26.346684      26.382500      26.384447      26.348732      26.356899      26.392235      26.393295      26.358009      26.321430      26.283461      26.282267      26.320276      26.318918      26.280863      26.279261      26.317373      26.354111      26.355595      26.390989      26.389572      26.423981      26.425323      26.458979      26.457712      26.491302      26.525370      26.526470      26.492487      26.493530      26.527443      26.528275      26.494423      26.461044      26.460094      26.426508      26.427515      26.428337      26.428963      26.462412      26.461821      26.495150      26.528952      26.529470      26.495705      26.496078      26.529819      26.529995      26.496267      26.463011      26.462811      26.429384      26.429596      26.395483      26.360294      26.360062      26.395262      26.394159      26.394817      26.359600      26.358912      26.322371      26.323084      26.285170      26.284431      26.285666      26.323565      26.323805      26.285915      26.246614      26.246357      26.205687      