<VTKFile type="UnstructuredGrid" version="1.0" byte_order="LittleEndian" header_type="UInt64">
  <UnstructuredGrid>
    <Piece NumberOfPoints="40602" NumberOfCells="20000">
      <CellData Scalars="Scalars_">
        <DataArray type="Float32" Name="Scalars_" format="ascii">
     0.291742      0.290941      0.220849      0.221809      0.087816      -0.103565      -0.105380      0.086525      0.083932      -0.109025      -0.114528      0.080015      0.215999      0.218918      0.289330      0.286892      0.283602      0.279424      0.207070      0.212062      0.074739      -0.121930      -0.131289      0.068060      0.059922      -0.142674      -0.156168      0.050258      0.193723      0.200976      0.274316      0.268227      0.261097      0.252860      0.175474      0.185247      0.038991      -0.171868      -0.189883      0.026034      0.011290      -0.210334      -0.233355      -0.005348      0.151702      0.164322      0.243442      0.232760      0.220727      0.207248      0.121660      0.137516      -0.023996      -0.259091      -0.287698      -0.044777      -0.067825      -0.319341      -0.354194      -0.093278      0.084486      0.104022      0.192220      0.175539      0.157092      0.136763      0.039221      0.062928      -0.121284      -0.392442      -0.434275      -0.151993      -0.185562      -0.479889      -0.529485      -0.222154      -0.015171      0.013233      0.114433      0.089979      0.063276      0.034199      -0.079779      -0.046128      -0.261931      -0.583270      -0.641451      -0.305059      -0.351705      -0.704235      -0.771830      -0.402035      -0.155718      -0.116262      0.002619      -0.031589      -0.068550      -0.108386      -0.244091      -0.198282      -0.456212      -0.844441      -0.922266      -0.514396      -0.576742      -1.005497      -1.094319      -0.643397      -0.345955      -0.293273      -0.151216      -0.197152      -0.246302      -0.298765      -0.462277      -0.402253      -0.714502      -1.188904      -1.289409      -0.790185      -0.870563      -1.395977      -1.508731      -0.955737      -0.593888      -0.526126      -0.354632      -0.413982      -1.690931      -2.476485      -2.640083      -1.815784      -1.282134      -1.019122      -0.930779      -1.181878      -1.085614      -0.846003      -0.764852      -0.993408      -1.455889      -1.570938      -2.319081      -2.167987      -2.023283      -1.345837      -1.240808      -1.885013      -1.753184      -1.627774      -1.045795      -1.140803      -0.741428      -0.665635      -0.476882      -0.543389      -0.613540      -0.821308      -0.905300      -0.687359      -2.985185      -2.809716      -1.945382      -2.079576      -1.494231      -1.386291      -1.110952      -1.206163      -1.406183      -1.304626      -1.605807      -1.720842      -2.360987      -2.218184      -3.166244      -3.352605      -3.739846      -3.543933      -2.507731      -2.658125      -1.960433      -1.839129      -1.510651      -1.617817      -1.839260      -1.727443      -2.084484      -2.210984      -2.968512      -2.811840      -3.939918      -4.143675      -4.109867      -5.624285      -5.835425      -4.272886      -3.265398      -2.771599      -2.655103      -3.133607      -3.000839      -2.537717      -2.419904      -2.867610      -3.780914      -3.945670      -5.411576      -5.198074      -4.984526      -3.616190      -3.452067      -4.771649      -4.560124      -4.350598      -3.127738      -3.289081      -2.469978      -2.339602      -1.952972      -2.068255      -2.184760      -2.601721      -2.734414      -2.302110      -6.249798      -6.044201      -4.434091      -4.592828      -3.523905      -3.395680      -2.886721      -2.999974      -3.218840      -3.110852      -3.649512      -3.771936      -4.900224      -4.748430      -6.451390      -6.648143      -7.023793      -6.839221      -5.047531      -5.189673      -4.004940      -3.890602      -3.323419      -3.424069      -3.611523      -3.520273      -4.114380      -4.218362      -5.455788      -5.325980      -7.201036      -7.370143      -65.835045      -70.693382      -71.244034      -66.553711      -60.618275      -53.726852      -52.823631      -59.771046      -58.865543      -51.872272      -50.874687      -57.902344      -64.206528      -65.053040      -70.079948      -69.401596      -73.386505      -73.881363      -76.580910      -76.266556      -78.219772      -79.415138      -79.374710      -78.358109      -78.432014      -79.260612      -79.068672      -78.440109      -77.026588      -76.834030      -74.313828      -74.685829      -74.999146      -75.255440      -77.231346      -77.158997      -78.380554      -78.793945      -78.431168      -78.251007      -78.048698      -77.969200      -77.445343      -77.771133      -77.195465      -77.243561      -75.456253      -75.603127      -72.863396      -68.828148      -68.345726      -72.541527      -72.165871      -71.734123      -67.210526      -67.807213      -62.137882      -61.407120      -54.580402      -55.383125      -56.134235      -62.811237      -63.428185      -56.833286      -49.525421      -42.105770      -41.435741      -48.813129      -48.056175      -47.255936      -39.985390      -40.728378      -33.799736      -33.140255      -26.906767      -27.475193      -28.019222      -34.429741      -35.028561      -28.537258      -22.742620      -22.305864      -17.344501      -17.702997      -13.457475      -10.020418      -9.798804      -13.171748      -12.872544      -9.566744      -9.325220      -12.561032      -16.577330      -21.369698      -21.847733      -16.968834      -15.752401      -20.360134      -20.873299      -16.171375      -12.238419      -9.075242      -8.817833      -11.905936      -11.564841      -8.554029      -8.284867      -11.216404      -14.881288      -15.321874      -19.831850      -19.290140      -24.423683      -30.245020      -31.003454      -25.072239      -26.315622      -25.703508      -31.740168      -32.453098      -39.208626      -38.400097      -45.532375      -46.414043      -44.613041      -37.561939      -36.696423      -43.658375      -42.670918      -35.805908      -34.892845      -41.653370      -40.608593      -39.539562      -33.009235      -33.959766      -27.860910      -27.037336      -21.695517      -22.393675      -23.082428      -28.671547      -29.466990      -23.759760      -18.736731      -18.173378      -13.976020      -14.432160      -10.861900      -8.011386      -7.734610      -10.502604      -10.139781      -7.455548      -7.175188      -9.774677      -13.048823      -17.023952      -17.601856      -13.514399      -12.111834      -15.856136      -16.441452      -12.580806      -9.408517      -6.894490      -6.614378      -9.042487      -8.677739      -6.335740      -6.059417      -8.315377      -11.176805      -11.643362      -15.269762      -14.684063      -18.849384      -23.659267      -24.511782      -19.564890      -20.989979      -20.279095      -25.360485      -26.203098      -32.043869      -31.066288      -37.341053      -38.449341      -36.217842      -30.079124      -29.084997      -35.082867      -41.567558      -48.358627      -49.701073      -42.828171      -45.284561      -44.068470      -51.008686      -52.277023      -58.996162      -57.764576      -63.869164      -64.971466      -62.694267      -56.475033      -55.131241      -61.448009      -66.917648      -67.990250      -72.222038      -71.353844      -74.781319      -77.339790      -77.827972      -75.449577      -76.045517      -78.249336      -78.605431      -76.571770      -73.727760      -73.012436      -68.983772      -69.899635      -70.739700      -71.506104      -74.943893      -74.370728      -77.030586      -78.897171      -79.124809      -77.423752      -77.752563      -79.287910      -79.385323      -78.017822      -75.889915      -75.449600      -72.201141      -72.827171      -68.656273      -67.842072      -62.317253      -63.294712      -56.882523      -49.833149      -48.750282      -55.807678      -54.679947      -47.629036      -46.472641      -53.501999      -60.166824      -66.000763      -66.957344      -61.274353      -46.213093      -52.660770      -54.256039      -47.772110      -41.293293      -35.096382      -33.794899      -39.844219      -38.394295      -32.499229      -31.212597      -36.947933      -43.057739      -44.639576      -51.028698      -49.367477      -55.595955      -57.246284      -62.934841      -61.397198      -66.476448      -70.691422      -71.820740      -67.825539      -69.082687      -72.857994      -73.806358      -70.248383      -65.766739      -64.392548      -58.840412      -60.371330      -61.833199      -63.221443      -68.257530      -67.055313      -71.324188      -74.669365      -75.450706      -72.312416      -73.215919      -76.154007      -76.782677      -74.037811      -70.405197      -69.373734      -64.532784      -65.765167      -60.132545      -53.737598      -52.299133      -58.750999      -57.307518      -55.807198      -49.310318      -50.821392      -44.170181      -42.736885      -36.400295      -37.703102      -39.001122      -45.588238      -46.986050      -40.290565      -33.939255      -28.086504      -27.086212      -32.790096      -31.638422      -30.487185      -25.090265      -26.086639      -21.101364      -20.255951      -16.013628      -16.714800      -17.422401      -21.951838      -22.805206      -18.134567      -14.100732      -13.521414      -10.254827      -10.713525      -7.956451      -5.786207      -5.516853      -7.601954      -7.252819      -5.252048      -4.992425      -6.909907      -9.356053      -12.381089      -12.947694      -9.801948      -8.489480      -11.274896      -11.823039      -8.918231      -6.574013      -4.738564      -4.490983      -6.245858      -5.926090      -4.250141      -4.016440      -5.615279      -7.662756      -8.070715      -10.737915      -10.213254      -13.307984      -16.966162      -17.770874      -13.966272      -15.320682      -14.637685      -18.588692      -19.417709      -24.099504      -23.116713      -28.197399      -29.339251      -27.064306      -22.144176      -21.184107      -25.942549      -24.834599      -20.238632      -19.309792      -23.742825      -22.669485      -21.616735      -17.509668      -18.399527      -14.648180      -13.912862      -10.832915      -11.425589      -12.036387      -15.403167      -16.176357      -12.664250      -9.701961      -9.204971      -6.882080      -7.266334      -5.313924      -3.790223      -3.571774      -5.022445      -4.741191      -3.361325      -3.159052      -4.470440      -6.152140      -8.257081      -8.723109      -6.510533      -5.476140      -7.374768      -7.807476      -5.807253      -4.210401      -2.965079      -2.779484      -3.961216      -3.722967      -2.602298      -2.433510      -3.495676      -4.855872      -5.158979      -6.959322      -6.561391      -8.659973      -11.192671      -11.837488      -9.172242      -10.259295      -9.705521      -12.506405      -13.198542      -16.641930      -15.797894      -19.581034      -20.586611      -18.601797      -14.979004      -14.186549      -17.650564      -21.577370      -25.949343      -27.239384      -22.695221      -25.016100      -23.842127      -28.559050      -29.905920      -35.219929      -33.700680      -39.213825      -40.892788      -37.554520      -32.207020      -30.742249      -35.919891      -41.417480      -43.201229      -49.003716      -47.117653      -52.832481      -58.315571      -60.155075      -54.743439      -56.616505      -61.924839      -63.615318      -58.439709      -52.742393      -50.882217      -44.998550      -46.801693      -48.602249      -50.391270      -56.364021      -54.573277      -60.202045      -65.219078      -66.730835      -61.893894      -63.507317      -68.147408      -69.467506      -65.036232      -59.784779      -58.104328      -52.159462      -53.897430      -47.684933      -45.988834      -39.892567      -41.473526      -35.509296      -29.938053      -28.678486      -34.082283      -32.670517      -27.436621      -26.215021      -31.277363      -36.761101      -42.585815      -44.286736      -38.320133      -84.069855      -83.985321      -83.661728      -83.796379      -83.895233      -83.950516      -84.121391      -84.117928      -84.283752      -84.239471      -84.310959      -84.400009      -84.440247      -84.281662      -84.241890      -84.440979      -84.590668      -84.552696      -84.624901      -84.697769      -84.767944      -84.805885      -84.667061      -84.661713      -84.506790      -84.475197      -84.217346      -84.291298      -84.333282      -84.507050      -84.472786      -84.340881      -84.144432      -83.867661      -83.760056      -84.089973      -84.000435      -83.877487      -83.435654      -83.615761      -83.114105      -82.866890      -82.139732      -82.466270      -82.748863      -83.322060      -83.490669      -82.988266      -83.184769      -83.338089      -83.706848      -83.619339      -83.937134      -84.161522      -84.138153      -83.966301      -83.952225      -84.070335      -83.953011      -83.890991      -83.749756      -83.510666      -83.447273      -83.751244      -82.419891      -83.014557      -83.149811      -82.636307      -81.930069      -80.978828      -80.559731      -81.620277      -81.256439      -80.080338      -79.537834      -80.836899      -81.837456      -82.153778      -82.832283      -82.603584      -82.328362      -81.469780      -81.049026      -82.005943      -81.635094      -81.214119      -80.038818      -80.572937      -79.218773      -78.548630      -76.662682      -77.495590      -78.249489      -79.821121      -80.359398      -78.928833      -77.091759      -74.744408      -73.699554      -76.243927      -75.310165      -74.285950      -71.318039      -72.558540      -69.142334      -67.673981      -63.319962      -65.000687      -66.588722      -70.508820      -71.773735      -68.079544      -69.470848      -70.762283      -74.007401      -72.938927      -75.697166      -77.858299      -78.548111      -76.562302      -77.344429      -79.165474      -79.714272      -78.048073      -75.869781      -73.051559      -71.955048      -74.982941      -81.068863      -81.836830      -81.901154      -81.251778      -80.250687      -78.802574      -78.342995      -79.937912      -79.562286      -77.815712      -77.218086      -79.122505      -80.521019      -81.525650      -81.710983      -80.825180      -79.728340      -80.979919      -81.281906      -80.155846      -78.616562      -76.546959      -75.798721      -78.041794      -77.394966      -74.969460      -74.055092      -76.672333      -78.677467      -80.197868      -80.619041      -79.236450      -83.272934      -83.236671      -82.802826      -82.918488      -82.390793      -82.186821      -81.339828      -81.644287      -82.086014      -81.892998      -82.541496      -82.637535      -82.988876      -82.981445      -83.255363      -83.179642      -82.830002      -83.040184      -82.936859      -82.820229      -82.655235      -82.676590      -82.222504      -82.300713      -82.270042      -82.317863      -82.568878      -82.411575      -82.365463      -82.632462      -82.540535      -82.161423      -81.547562      -81.027542      -80.150887      -80.804222      -81.364410      -81.821823      -82.317154      -81.981102      -82.481583      -82.710457      -83.014465      -82.881096      -82.656738      -82.354416      -81.755249      -82.159157      -83.368217      -83.234688      -82.842567      -83.055466      -83.192551      -83.239868      -83.395569      -83.426826      -83.593018      -83.488892      -83.525703      -83.698631      -83.777611      -83.779938      -83.543533      -83.605888      -82.766891      -83.259941      -83.451309      -83.022972      -83.242699      -83.606926      -83.719353      -83.418907      -82.565735      -83.038551      -82.790428      -82.235954      -81.859962      -82.497803      -82.167305      -81.443222      -79.532677      -80.573433      -81.091103      -80.170006      -80.751266      -81.562698      -81.985695      -81.281113      -79.413300      -80.431602      -79.779022      -78.648148      -77.866974      -79.072586      -78.344055      -77.089943      -73.508102      -73.400848      -73.266922      -73.349670      -73.453850      -73.585960      -73.815132      -73.643509      -73.893356      -74.118797      -74.527908      -74.226845      -73.989670      -73.715485      -73.575272      -73.804214      -74.108017      -74.357353      -74.860939      -74.517532      -75.082886      -75.894226      -76.641426      -75.573860      -76.251060      -77.438904      -78.262276      -77.054848      -75.905716      -75.316345      -74.680588      -75.093033      -75.663399      -76.546638      -77.703407      -76.753654      -77.944046      -79.101784      -79.908401      -78.850136      -79.707596      -80.613571      -81.209412      -80.462273      -79.559814      -78.656303      -77.529434      -78.524361      -77.421570      -76.328644      -75.440460      -76.406158      -75.529068      -74.934898      -74.419228      -74.842010      -74.352798      -74.041634      -73.759140      -73.993202      -74.311348      -74.752991      -75.393806      -74.782455      -77.407272      -76.314957      -75.390213      -76.366913      -77.512260      -78.620811      -79.483727      -78.505814      -79.432770      -80.221672      -80.822884      -80.237938      -79.423462      -78.447449      -77.380615      -78.454842      -79.465569      -80.277443      -80.980667      -80.351013      -81.082581      -81.680313      -82.009399      -81.552475      -81.852760      -82.175903      -82.152084      -81.957405      -81.677872      -81.431168      -80.898048      -81.303635      -81.463150      -81.336586      -81.418930      -81.688110      -81.831696      -81.900864      -81.372719      -81.429512      -80.688957      -80.501129      -79.196465      -79.526039      -79.791954      -80.812988      -80.871117      -79.994087      -80.131516      -80.202454      -80.776031      -80.860214      -81.176819      -81.148308      -80.733345      -80.932610      -80.595390      -80.206169      -79.552635      -80.154938      -80.364792      -80.133102      -80.204201      -80.613136      -74.991631      -74.293388      -73.970016      -74.501862      -75.409798      -76.551186      -77.220016      -76.115982      -76.866867      -77.873047      -78.481667      -77.623062      -76.475662      -75.302292      -74.721901      -75.679482      -78.135963      -76.998695      -76.108864      -77.310577      -78.351471      -79.011063      -79.430763      -79.017487      -79.577461      -79.752632      -79.984482      -80.022812      -79.599197      -78.766479      -77.900627      -78.912712      -74.297966      -74.755081      -75.435257      -74.797325      -75.583076      -76.508812      -77.686432      -76.730820      -75.074516      -75.821487      -74.906792      -74.419022      -73.991516      -74.335495      -73.959091      -73.702934      -73.354965      -73.506714      -73.730530      -73.529968      -73.782234      -74.056709      -74.544807      -74.154213      -73.633003      -73.859276      -73.571419      -73.407883      -73.252998      -73.374435      -73.236778      -73.144249      -73.011581      -72.970627      -72.933563      -72.965981      -73.008804      -73.066132      -73.138092      -73.065681      -73.138153      -73.229874      -73.347412      -73.230782      -73.143730      -73.077927      -73.017792      -73.069633      -73.360558      -73.253387      -73.154800      -73.238594      -73.349663      -73.498741      -73.694954      -73.503044      -73.702347      -73.951797      -74.292465      -73.963791      -73.723419      -73.544731      -73.380341      -73.518204      -73.083298      -73.163506      -73.227753      -73.133423      -73.196404      -73.308525      -73.411018      -73.276382      -73.091026      -73.172127      -73.109451      -73.041756      -73.003006      -73.060127      -73.020882      -72.972183      -72.904274      -72.934097      -72.958366      -72.923416      -72.947502      -72.988884      -73.027718      -72.978172      -72.908760      -72.939301      -72.915039      -72.889542      -72.874474      -72.896004      -72.880882      -72.862518      -65.739677      -61.534798      -59.686466      -64.076096      -67.974838      -71.329872      -72.539459      -69.415466      -70.781349      -73.677696      -74.742432      -72.067314      -68.852249      -67.334969      -63.333725      -65.068596      -60.743965      -58.836487      -53.971134      -55.978138      -50.932610      -45.791668      -43.830387      -48.910725      -46.912510      -41.913631      -40.050587      -44.951508      -49.956554      -51.958248      -56.890942      -54.925003      -52.956844      -51.004360      -46.049702      -47.982143      -43.039658      -38.249020      -36.515377      -41.187248      -39.402985      -34.854977      -33.272186      -37.694122      -42.361012      -44.172234      -49.084526      -47.212902      -52.148125      -57.020012      -58.811134      -54.017742      -57.805405      -55.909634      -60.596031      -62.356609      -66.467079      -64.902344      -68.714806      -70.052956      -67.323776      -63.293274      -61.654732      -65.890480      -69.617363      -72.793625      -73.778954      -70.823708      -73.095238      -71.985359      -74.724007      -75.624023      -77.696899      -76.978325      -78.813179      -79.381058      -78.217392      -76.223450      -75.435699      -77.596397      -79.344139      -79.829483      -81.125710      -80.748390      -81.871681      -82.766716      -82.991798      -82.163795      -82.445831      -83.209267      -83.417603      -82.716034      -81.837402      -80.741936      -80.296181      -81.489388      -82.480232      -81.563942      -81.164963      -82.168129      -82.972900      -83.615479      -83.801697      -83.215164      -83.441757      -83.975243      -84.135193      -83.651779      -83.044579      -82.772659      -81.937881      -82.286118      -81.342682      -80.172623      -79.615128      -80.900513      -80.425827      -79.919060      -78.376778      -79.016449      -77.276886      -76.475677      -74.148140      -75.140610      -76.070724      -78.026634      -78.724762      -76.937836      -77.742332      -79.371796      -79.968735      -78.485397      -79.794594      -79.168777      -80.516922      -81.017860      -81.999672      -81.601883      -82.473831      -82.786491      -82.129173      -81.165337      -80.689171      -81.752205      -82.608200      -82.903862      -83.524399      -83.295341      -83.844437      -84.280685      -84.410904      -84.019035      -84.174896      -84.525017      -84.622108      -84.311333      -83.915588      -83.415276      -83.172928      -83.731293      -84.214272      -83.819206      -83.630775      -84.076782      -84.427544      -84.701126      -84.760788      -84.522591      -84.595276      -84.799530      -84.815384      -84.644081      -84.414726      -84.327278      -83.980217      -84.113228      -83.722214      -83.220131      -82.969200      -83.535286      -83.317017      -83.067467      -82.359612      -82.682541      -81.884338      -81.473145      -80.365128      -80.882729      -81.349670      -82.252884      -82.580063      -81.768051      -80.740898      -80.212936      -78.783676      -79.443542      -77.806694      -75.746254      -74.741959      -76.988770      -76.090691      -73.645882      -72.454887      -75.108513      -77.255554      -78.981506      -79.627472      -78.055588      -78.271973      -76.379974      -75.425568      -77.495850      -76.650337      -75.733086      -73.270416      -74.389648      -71.627472      -70.284546      -66.727303      -68.300491      -69.781662      -72.878929      -74.038803      -71.166962      -67.698204      -63.608398      -61.791965      -66.084595      -64.381165      -62.596989      -57.961811      -59.905067      -54.986622      -52.963230      -47.786762      -49.803474      -51.828255      -56.986332      -58.946083      -53.846500      -62.685875      -57.802532      -55.843006      -60.850517      -65.342651      -69.215714      -70.633545      -66.985710      -68.531319      -71.950455      -73.167175      -69.975861      -66.105400      -64.440536      -59.710461      -61.553448      -56.417686      -54.474209      -48.946724      -50.896088      -45.234272      -39.654301      -37.917923      -43.363068      -41.512638      -36.213814      -34.546722      -39.690628      -45.056534      -50.505432      -52.498798      -46.996441      -48.507835      -43.137299      -41.247906      -46.519032      -44.551003      -42.614464      -37.589500      -39.396355      -34.457279      -32.806782      -28.322233      -29.805716      -31.339415      -36.157631      -37.903713      -32.920753      -28.255445      -23.945715      -22.707109      -26.845757      -25.482624      -24.167847      -20.364302      -21.512840      -17.914577      -16.927713      -13.870163      -14.702066      -15.573364      -18.944229      -20.015608      -16.483377      -22.278423      -18.415873      -17.431232      -21.127474      -25.227087      -29.709644      -31.206030      -26.549479      -27.910948      -32.741955      -34.314392      -29.309336      -24.691164      -23.466896      -19.436068      -20.490417      -16.728849      -13.421660      -12.685298      -15.838019      -14.979268      -14.153621      -11.301127      -11.978251      -9.409221      -8.866421      -6.826644      -7.252365      -7.699849      -9.978055      -10.572673      -8.169093      -6.181126      -5.818577      -4.291846      -4.566843      -3.279310      -2.273069      -2.120889      -3.073788      -2.878982      -1.976851      -1.840806      -2.694725      -3.783449      -4.030771      -5.473706      -5.146390      -4.836427      -4.543548      -3.329130      -3.549658      -2.520811      -1.712582      -1.591982      -2.357004      -2.203041      -1.478791      -1.372780      -2.058635      -2.926594      -3.121557      -4.267423      -4.007668      -5.337848      -5.678521      -7.394563      -6.955581      -8.897976      -11.196043      -11.882761      -9.452775      -10.038214      -12.604810      -13.361917      -10.654362      -8.349757      -6.422582      -6.039973      -7.859193      -5.788176      -4.435746      -4.173172      -5.447018      -6.978888      -8.801644      -9.347875      -7.414585      -7.879295      -9.928772      -10.544743      -8.373601      -6.541859      -6.152912      -4.716993      -5.017508      -3.763856      -3.535521      -2.572992      -2.743871      -1.923481      -1.273704      -1.181310      -1.797259      -1.679637      -1.095339      -1.015526      -1.570278      -2.265104      -2.413545      -3.322169      -3.123281      -2.938327      -2.766762      -1.999508      -2.127237      -1.468840      -0.941604      -0.873307      -1.374980      -1.288357      -0.810373      -0.752541      -1.208637      -1.772723      -1.881480      -2.608044      -2.461627      -3.296814      -4.303914      -4.557968      -3.491127      -3.928644      -3.701515      -4.832657      -5.128755      -6.571533      -6.191772      -7.810894      -8.289537      -7.364952      -5.838803      -5.511775      -6.950872      -8.650938      -9.166125      -11.267210      -10.638022      -12.931522      -15.542232      -16.428394      -13.685343      -14.489558      -17.370522      -18.368292      -15.344252      -12.659262      -10.311601      -9.719441      -11.940806      -15.984517      -13.078136      -12.326271      -15.085681      -14.231697      -11.614656      -10.943192      -13.422859      -19.421202      -16.249313      -17.204443      -20.528563      -21.689512      -18.209139      -19.262716      -22.903011      -31.209618      -26.891171      -25.514435      -29.668695      -28.186462      -24.193665      -22.930279      -26.764984      -35.351059      -30.911608      -32.490520      -37.080879      -38.872002      -34.132145      -35.833149      -40.718788      -27.952496      -32.093109      -33.687195      -29.398169      -25.406008      -21.725504      -20.580379      -24.111027      -22.881308      -19.495773      -18.472387      -21.717934      -25.271818      -26.576506      -30.571943      -29.126284      -27.758280      -26.469725      -22.881609      -24.039797      -20.621809      -17.510754      -16.611233      -19.593679      -18.634130      -15.774021      -14.999151      -17.743603      -20.790516      -24.136814      -25.262138      -21.798239      -23.094860      -19.859123      -19.004606      -22.137222      -21.264708      -20.477989      -17.527740      -18.227379      -15.488323      -14.875414      -12.518826      -13.046759      -13.635832      -16.170614      -16.922380      -14.286506      -11.949707      -9.903778      -9.441741      -11.396409      -10.896788      -10.450089      -8.654267      -9.025547      -7.413421      -7.110082      -5.791967      -6.035813      -6.310124      -7.754113      -8.133149      -6.615857      -9.010275      -7.325576      -6.954002      -8.551536      -10.412574      -12.557378      -13.220035      -10.969000      -11.573853      -13.938178      -14.712173      -12.227836      -10.052642      -9.510338      -7.731596      -8.173062      -6.567752      -5.209816      -4.932033      -6.214648      -5.890593      -5.594610      -4.445451      -4.677538      -3.657747      -3.478468      -2.667294      -2.803781      -2.953784      -3.854577      -4.069710      -3.117917      -2.326977      -2.203569      -1.581344      -1.672815      -1.135492      -0.699558      -0.651180      -1.068603      -1.007663      -0.607171      -0.567305      -0.952380      -1.422141      -1.497912      -2.090896      -1.988470      -1.895826      -1.812526      -1.292151      -1.353667      -0.9