<VTKFile type="UnstructuredGrid" version="1.0" byte_order="LittleEndian" header_type="UInt64">
  <UnstructuredGrid>
    <Piece NumberOfPoints="40602" NumberOfCells="20000">
      <CellData Scalars="Scalars_">
        <DataArray type="Float32" Name="Scalars_" format="ascii">
     -85.974930      -85.974983      -85.817184      -85.816963      -84.991211      -80.789551      -80.795326      -84.992340      -84.994606      -80.806892      -80.824295      -84.998016      -85.818291      -85.817627      -85.975082      -85.975243      -85.975449      -85.975716      -85.820290      -85.819176      -85.002571      -80.847572      -80.876793      -85.008278      -85.015152      -80.912048      -80.953484      -85.023209      -85.823204      -85.821632      -85.976028      -85.976402      -85.976822      -85.977303      -85.827049      -85.825005      -85.032471      -81.001251      -81.055473      -85.042938      -85.054626      -81.116280      -81.183762      -85.067551      -85.831841      -85.829323      -85.977844      -85.978439      -85.979088      -85.979797      -85.837608      -85.834602      -85.081711      -81.258057      -81.339218      -85.097107      -85.113724      -81.427284      -81.522247      -85.131554      -85.844330      -85.840851      -85.980560      -85.981384      -85.982269      -85.983200      -85.852005      -85.848053      -85.150566      -81.624016      -81.732430      -85.170731      -85.192001      -81.847229      -81.968063      -85.214317      -85.860573      -85.856178      -85.984192      -85.985229      -85.986328      -85.987465      -85.869965      -85.865173      -85.237617      -82.094452      -82.225754      -85.261818      -85.286842      -82.361198      -82.499893      -85.312592      -85.880096      -85.874947      -85.988647      -85.989876      -85.991135      -85.992432      -85.890823      -85.885391      -85.338974      -82.640823      -82.782898      -85.365883      -85.393234      -82.925064      -83.066429      -85.420944      -85.902023      -85.896378      -85.993752      -85.995094      -85.996452      -85.997826      -85.913521      -85.907745      -85.448929      -83.206337      -83.344513      -85.477104      -85.505409      -83.480972      -83.615952      -85.533752      -85.925133      -85.919319      -85.999207      -86.000580      -85.724663      -84.527168      -84.649788      -85.749359      -85.968605      -86.010811      -86.009659      -85.963692      -85.958588      -86.008461      -86.007217      -85.953308      -85.672676      -85.699059      -84.401688      -84.274025      -84.144691      -85.645653      -85.618126      -84.014076      -83.882385      -83.749695      -85.562057      -85.590218      -85.936653      -85.930916      -86.001945      -86.003304      -86.004639      -85.942314      -85.947876      -86.005943      -84.883194      -84.768761      -85.773018      -85.795532      -85.977768      -85.973297      -86.011917      -86.012962      -86.014900      -86.013962      -85.981995      -85.985977      -85.836807      -85.816811      -84.992195      -85.094902      -85.278831      -85.190590      -85.855476      -85.872833      -85.993210      -85.989716      -86.015778      -86.016602      -86.018074      -86.017365      -85.996452      -85.999458      -85.903755      -85.888908      -85.359535      -85.433067      -85.977226      -85.795609      -85.828873      -85.983856      -86.015541      -86.021797      -86.021500      -86.014214      -86.012726      -86.021156      -86.020767      -86.011040      -85.961296      -85.969727      -85.757973      -85.715828      -85.669083      -85.951889      -85.941460      -85.617683      -85.561470      -85.500122      -85.917435      -85.929985      -86.004761      -86.002220      -86.018723      -86.019318      -86.019852      -86.007065      -86.009155      -86.020340      -85.883347      -85.858002      -85.989677      -85.994766      -86.017708      -86.016693      -86.022057      -86.022278      -86.022629      -86.022469      -86.018585      -86.019341      -86.003014      -85.999191      -85.905296      -85.924278      -85.954689      -85.940643      -86.006310      -86.009125      -86.020523      -86.019981      -86.022758      -86.022865      -86.023018      -86.022949      -86.020981      -86.021355      -86.013512      -86.011505      -85.966644      -85.976738      13.190572      13.162489      13.124780      13.181018      13.267175      13.396876      13.372568      13.256764      13.247731      13.350470      13.330359      13.239921      13.208576      13.199751      13.196630      13.227628      13.279928      13.219006      13.242225      13.343559      13.393844      13.403127      13.176070      13.238492      13.059148      12.911647      12.603322      12.851845      12.994013      13.126473      13.150424      13.073034      12.985539      12.886499      12.668195      12.842237      12.612000      12.243303      11.822232      12.334293      12.012430      11.326035      10.756725      11.639038      12.239548      12.468555      12.774332      12.647314      12.928596      13.139186      13.150103      12.985476      13.036785      13.083045      13.171080      13.160763      13.292895      13.279147      13.423635      13.453094      13.485508      13.308659      13.326740      13.521122      13.720372      13.804726      13.783345      13.674620      13.633567      13.596607      13.761085      13.772667      14.141066      14.160355      14.674340      17.319092      19.914383      13.929711      13.470352      21.080336      -61.128067      -57.097729      -79.702583      -80.818779      -84.948929      -85.800743      -85.750702      -84.704834      -84.423676      -85.691818      -85.623230      -84.101227      -77.085876      -47.369617      -52.880939      -78.479431      -72.987953      -21.254107      -38.194370      -75.353210      -83.725746      -85.543655      -85.451027      -83.274918      -82.722359      -85.342537      -85.215431      -82.060898      -66.167015      -69.788513      2.725417      17.689240      12.040483      13.680038      13.771954      11.393790      12.575856      11.419359      13.908903      14.059093      13.742948      13.717215      13.531800      13.562933      13.502671      13.685939      13.652349      13.475245      13.449385      13.619120      13.587854      13.425041      13.402190      13.380802      13.533373      13.559244      13.617605      13.626265      14.053461      13.818295      13.402188      13.616134      13.632421      12.790618      22.526300      22.557865      -59.384628      -62.641281      -81.308456      -85.068184      -84.900635      -80.489601      -79.623100      -84.713516      -84.507851      -78.715820      -53.289364      18.386909      20.742004      -56.338181      -45.467777      13.989684      16.055208      -49.868740      -77.758057      -84.284172      -84.041748      -76.716934      -75.525650      -83.777519      -83.485077      -74.071495      -28.978519      -39.058208      12.318368      11.155561      13.922063      13.630630      13.638345      14.044158      14.144018      14.128957      13.639698      13.635016      13.509989      13.488703      13.342242      13.360838      13.324940      13.469083      13.450745      13.308835      13.221895      13.208072      13.209921      13.231531      13.253626      13.242075      13.212222      13.215044      13.248309      13.255520      13.365960      13.347287      13.383311      13.262500      13.269247      13.399464      13.588987      13.562273      13.787263      13.826290      14.099156      14.395203      14.323018      14.045286      13.984472      14.240508      14.145901      13.915586      13.695312      13.743824      13.533012      13.500869      13.465441      13.426247      13.579772      13.640939      13.837287      14.037095      13.911608      13.747992      13.645836      13.766512      13.598364      13.528637      13.432478      13.510715      13.382721      13.334205      13.255860      13.281667      13.225270      13.217072      13.233197      13.312047      13.295360      13.227449      13.222569      13.280150      13.266281      13.218465      13.240870      13.327142      13.305342      13.233195      13.304082      13.475704      13.465185      13.299032      13.203255      13.184268      13.178329      13.202770      13.202330      13.172763      13.167512      13.201897      13.313141      13.308789      13.485432      13.494388      13.736762      13.723372      14.013059      14.030838      14.367418      14.737864      14.710674      14.345117      14.320314      14.680122      14.645777      14.292735      13.971901      13.993468      13.708733      13.692766      13.675377      13.656453      13.922043      13.948169      14.262049      14.607123      14.563549      14.227863      14.189713      14.514318      14.458551      14.147033      13.861464      13.893250      13.635861      13.613437      13.414521      13.275752      13.281999      13.428563      13.441655      13.453847      13.293656      13.287972      13.204539      13.203828      13.190642      13.197521      13.204973      13.205444      13.206599      13.213071      13.293835      13.433381      13.416781      13.279840      13.266757      13.254496      13.385434      13.400820      13.580444      13.559942      13.537637      13.593361      13.678598      13.600074      13.617368      13.792250      10.622354      10.720806      4.127967      -13.448777      -72.212059      -83.154541      -82.776405      -69.915848      -67.387489      -82.348740      -81.878044      -64.862732      22.526838      11.848269      11.216566      16.426971      24.611610      12.983384      12.459445      24.622152      -62.475235      -81.374802      -80.849724      -60.268040      -58.232502      -80.311897      -79.768143      -56.330803      22.073006      23.568033      13.400675      13.714555      13.502675      13.485112      13.501962      13.494651      13.506730      13.494386      13.520188      13.539634      13.370599      13.356308      13.232130      13.242976      13.221894      13.342575      13.329400      13.212202      13.203007      13.316783      13.304704      13.194251      13.185890      13.177886      13.282091      13.293146      13.442369      13.430305      13.552316      13.540994      13.528084      13.455431      13.469635      13.514712      13.937119      14.083385      18.811037      20.433495      -54.508644      -79.222832      -78.678047      -52.700794      -50.833607      -78.133713      -77.587875      -48.825268      15.895867      14.205066      14.168239      17.286282      13.563333      14.178559      14.205320      14.653752      -46.584293      -77.036842      -76.475388      -44.007271      -40.977268      -75.896873      -75.293434      -37.364792      11.833517      12.623964      14.132671      14.074051      13.573824      13.389402      13.398739      13.572117      13.561421      13.568029      13.408612      13.419098      13.271517      13.261395      13.162810      13.170203      13.155679      13.251703      13.242433      13.148792      13.131869      13.195030      13.196416      13.136005      13.144428      13.140186      13.197625      13.198665      13.329092      13.331067      13.532918      13.528222      13.536966      13.332635      13.333800      13.540387      13.805826      13.800463      14.114104      14.121129      14.477832      14.868270      14.858551      14.469378      14.459615      14.847266      14.834284      14.448446      14.096765      14.106004      13.794248      13.787143      13.779108      13.770099      14.074589      14.086318      14.435770      14.819453      14.802606      14.421469      14.405411      14.783545      14.762053      14.387451      14.046944      14.061493      13.760070      13.748975      13.502590      13.510059      13.320714      13.317119      13.201433      13.162531      13.157772      13.200909      13.200288      13.153193      13.148755      13.199547      13.326706      13.522859      13.516810      13.323913      20.579317      20.783087      20.468122      20.304937      20.103638      19.864553      20.067322      20.340527      20.533703      20.232759      20.367266      20.690683      20.984798      20.803028      21.039906      21.248608      21.417522      21.131874      21.250261      21.553551      21.662418      21.748861      21.419996      21.344929      21.001623      21.066334      20.689264      20.633827      20.563791      20.919926      20.817703      20.476147      20.108913      19.718208      19.781591      20.183611      20.243332      20.290602      19.872526      19.832333      19.403379      19.437546      18.988449      18.959328      18.922758      19.360329      19.306677      18.877348      18.821421      18.752956      19.158871      19.240358      19.639660      20.016193      19.901762      19.542887      19.424206      19.761169      19.589035      19.279152      18.937691      18.568165      18.669519      19.059196      17.831999      18.259039      18.174679      17.761778      17.334328      16.897402      16.946476      17.392908      17.441992      16.987934      17.022867      17.483004      17.938875      17.890417      18.328812      18.386337      18.433563      17.978905      18.011776      18.472097      18.503286      18.528244      18.060120      18.038551      17.568575      17.587408      17.113600      17.096970      17.076681      17.545383      17.517138      17.052195      16.588203      16.129520      16.148396      16.609621      16.627542      16.642389      16.177721      16.164356      15.711804      15.723886      15.285629      15.274731      15.261975      15.697528      15.680813      15.247183      15.230147      15.210629      15.638909      15.661383      16.107355      16.562799      16.532825      16.081463      16.051321      16.497585      16.456255      16.016317      15.583236      15.162997      15.188352      15.613009      15.551092      15.882499      15.733910      15.434120      15.113640      14.784559      14.856396      15.205490      15.284809      14.919086      14.973935      15.353467      15.736964      16.115768      16.008591      15.651170      15.874036      16.284790      16.207012      15.810648      15.413022      15.022030      15.064283      15.464776      15.509817      15.101455      15.134182      15.549050      15.975715      16.407843      16.351164      15.928638      17.950294      18.072903      17.677534      17.576591      17.181437      17.264526      16.839397      16.770884      16.594334      16.689957      17.082560      16.964882      17.310986      17.455711      17.802721      17.625183      17.154699      17.411623      17.137680      16.930063      16.657799      16.824760      16.481255      16.347395      16.000454      16.188744      16.458673      16.220930      16.382599      16.681185      16.845490      16.473141      16.895344      16.741808      15.924116      16.212566      16.396551      16.481043      16.941462      16.960329      17.426355      17.322758      17.638639      17.811628      17.924732      17.973633      17.416748      17.459185      18.625973      18.811268      18.432859      18.308990      18.130110      17.900364      18.117191      18.393288      18.610628      18.296751      18.445343      18.789946      19.102337      19.378857      19.122768      18.887239      19.613049      20.082947      19.969366      19.559952      19.460566      19.813961      19.616714      19.314468      18.499271      18.946529      19.030277      18.507233      18.455698      19.061481      19.040998      18.345865      16.480576      17.502497      17.720722      16.830410      17.102638      17.872343      17.956219      17.297455      15.531236      16.498873      16.170488      15.054205      14.503057      15.753542      15.266942      13.903376      7.956042      7.787067      7.445856      7.578284      7.732666      7.915988      8.392734      8.155217      8.695260      8.998133      9.752257      9.371013      9.049892      8.441192      8.227062      8.780331      9.463389      9.800636      10.714966      10.295291      11.298285      12.498595      13.141738      11.818423      12.444065      13.784508      14.388865      13.112844      11.803770      11.217749      10.203522      10.678274      11.260544      12.014848      13.246547      12.518000      13.781414      14.933733      15.385775      14.389894      14.888312      15.714309      15.924781      15.252242      14.438426      13.901865      12.780215      13.472699      12.381711      11.228992      10.454390      11.586710      10.824156      10.221604      9.371646      9.848524      9.057968      8.685533      8.141290      8.426950      8.792577      9.266407      10.143957      9.532928      11.792220      10.941031      9.890444      10.724384      11.611589      12.386694      13.161985      12.560545      13.399851      13.815678      14.359699      14.109999      13.691558      12.798668      12.051839      13.104332      14.038802      14.447775      15.073767      14.829346      15.483088      16.024405      16.024019      15.592874      15.596566      15.936739      15.776672      15.510303      15.192734      15.188770      14.699091      14.813474      14.813846      14.724459      14.947261      15.105411      15.351103      15.558511      15.297124      15.136342      14.882965      15.007025      14.702016      14.606902      14.497003      14.738263      14.569097      14.369674      14.221775      14.049579      14.138206      14.370898      14.461408      14.467199      14.054256      14.150229      13.781374      13.561294      12.971378      13.343205      13.541845      13.613800      13.848666      13.864476      8.047073      7.318332      6.707556      7.306380      8.318550      9.602678      10.361652      9.190526      10.035671      11.050856      11.662469      10.826815      9.791070      8.730040      7.972100      8.899078      11.473438      10.567857      9.635835      10.662881      11.544027      12.190763      12.637093      12.174250      12.709726      13.016152      13.338762      13.160801      12.821392      12.267000      11.458478      12.197486      8.373301      9.045103      9.696429      8.871742      9.597245      10.596330      11.504946      10.549997      8.712427      9.583855      8.763073      8.092075      7.688752      8.213413      7.844719      7.428619      6.797525      7.091916      7.262088      6.892768      7.082250      7.546333      8.005921      7.416183      6.361784      6.889349      6.648601      6.184708      6.128034      6.533369      6.502749      6.157671      6.654703      6.728659      6.642178      6.506186      6.368484      6.245677      6.526748      6.583045      6.760206      6.761292      6.992472      6.936065      6.904812      6.886840      6.802557      6.777839      7.270576      7.167231      7.002078      7.061327      7.141968      7.257445      7.588801      7.405746      7.752835      8.015923      8.566220      8.207260      7.932734      7.719069      7.400332      7.554136      7.009664      7.190565      7.293550      7.088873      7.176821      7.411433      7.549950      7.278107      6.955125      7.084863      7.015213      6.913733      6.873112      6.952394      6.892727      6.830234      6.833789      6.813367      6.840639      6.844928      6.841452      6.859934      6.873903      6.825867      6.763070      6.794813      6.845595      6.858880      6.923326      6.875950      6.883373      6.953897      17.628107      17.152086      17.148180      17.623594      18.099491      18.572947      18.578648      18.104609      18.108938      18.583498      18.587309      18.112310      17.634777      17.631884      17.155302      17.157694      16.684267      16.682369      16.216522      16.217964      15.762595      15.322433      15.321708      15.761552      15.759836      15.320360      15.318477      15.757544      16.211582      16.214361      16.679701      16.676378      16.672512      16.668207      16.204571      16.208288      15.754762      15.316133      15.313404      15.751574      15.748063      15.310367      15.307089      15.744306      16.196215      16.200518      16.663559      16.658661      17.127949      17.600756      17.606947      17.133482      17.143700      17.138765      17.612892      17.618481      18.093739      18.087488      18.559666      18.566568      18.552385      18.080873      18.074009      18.544853      19.010586      19.468645      19.477453      19.018770      19.034231      19.026699      19.485994      19.494112      19.943731      19.935083      20.371639      20.380747      20.362034      19.925978      19.916588      20.352118      20.773100      20.783474      21.188341      21.177584      21.563847      21.930414      21.941673      21.574900      21.585512      21.952427      21.962402      21.595432      21.208462      20.802984      20.793505      21.198709      21.225023      20.819298      20.811672      21.217335      21.604368      21.971275      21.978668      21.611980      21.617874      21.984140      21.987169      21.621584      21.235374      21.231173      20.825546      20.830055      20.407421      19.969505      19.964880      20.402777      20.396576      20.389139      19.951731      19.958862      19.508360      19.501633      19.041204      19.047449      19.052769      19.514078      19.518539      19.056950      19.059750      19.521465      19.522533      19.060890      19.056890      19.060059      19.521374      19.517559      19.966799      19.971529      20.408014      20.402069      20.410507      19.973230      19.972412      20.410143      20.832401      20.832088      21.235910      21.237143      21.622561      21.987137      21.983307      21.620155      21.613596      21.974800      21.960566      21.601959      21.221613      20.821039      20.828533      21.231001      21.185375      20.790787      20.808786      21.206787      21.584139      21.939337      21.909590      21.558805      21.524359      21.869484      21.816803      21.478867      21.116983      21.155996      20.765860      20.732588      20.327507      19.903910      19.927923      20.355785      20.376873      20.391968      19.958447      19.945768      19.499866      19.510586      19.050966      19.041792      19.028791      19.484699      19.464258      19.011280      18.547905      18.563049      18.090492      18.077225      17.602470      17.127039      17.137680      17.614264      17.623215      17.145864      17.151886      17.629690      18.107567      18.582331      18.574339      18.100454      18.587498      18.112215      18.114738      18.590248      18.590935      18.589865      18.114542      18.115427      17.637243      17.636621      17.159122      17.159431      17.158453      17.636444      17.634007      17.156006      16.681551      16.214249      16.216848      16.684065      16.685255      16.685274      16.218576      16.218246      15.762276      15.762871      15.322452      15.321672      15.320005      15.760705      15.758046      15.317354      15.748974      15.308699      15.313620      15.754177      16.210304      16.677542      16.671843      16.204859      16.197746      16.664249      16.654520      16.188770      15.733989      15.742295      15.302476      15.294830      14.876537      14.883463      14.491142      14.485059      14.127138      13.810381      13.814172      14.132194      14.136353      13.817237      13.819622      14.139675      14.500186      14.893698      14.889153      14.496160      14.897192      14.503294      14.505557      14.899724      14.901375      14.902226      14.507825      14.507045      14.145172      14.145708      13.823198      13.823110      13.822515      14.144026      14.142214      13.821367      13.549011      13.334044      13.333093      13.549243      13.549048      13.548463      13.330357      13.331857      13.180589      13.177942      13.099529      13.103511      13.107519      13.183112      13.185501      13.111547      13.189826      13.119637      13.115588      13.187743      13.334686      13.548322      13.547146      13.335004      13.334973      13.545451      13.543206      13.334576      13.193472      13.191736      13.123694      13.127771      13.142138      13.233558      13.225049      13.135689      13.129439      13.123374      13.209085      13.216895      13.363867      13.356038      13.561813      13.567024      13.570983      13.372021      13.380515      13.573343      14.007883      13.938481      10.695603      11.190811      -33.029724      -74.656204      -73.975426      -27.812103      -21.575743      -73.241516      -72.449104      -14.411454      10.145826      10.348383      13.869304      13.803109      13.741924      13.686988      10.114214      10.075425      -6.839021      -71.602974      -70.719101      0.401928      6.753148      -69.819481      -68.925934      11.977379      10.407570      10.234015      13.638823      13.597403      13.534181      13.541624      13.334246      13.327513      13.180878      13.100800      13.106193      13.187493      13.194395      13.111753      13.117479      13.201590      13.348503      13.555665      13.548855      13.341241      13.308872      13.512035      13.505059      13.303193      13.157120      13.080872      13.085608      13.162664      13.168471      13.090508      13.095572      13.174540      13.321041      13.314826      13.519270      13.526687      13.562330      13.532996      10.830078      10.612054      16.082418      -68.056526      -67.224480      19.200169      21.504126      -66.438354      -65.702705      23.169964      11.262069      11.049381      13.508698      13.488729      13.472417      13.459173      11.651040      11.463617      24.357162      -65.019089      -64.387924      25.181993      25.738329      -63.808014      -63.276905      26.105782      11.979877      11.823048      13.448501      13.439927      13.480341      13.283198      13.287787      13.485991      13.498374      13.492000      13.292654      13.297794      13.151849      13.146842      13.071931      13.076308      13.067732      13.142088      13.137604      13.063731      13.069642      13.073084      13.157524      13.154571      13.312241      13.534152      13.536528      13.314833      13.317388      13.538808      13.540959      13.319880      13.163504      13.080280      13.076633      13.160507      13.175189      13.095582      13.091677      13.172350      13.169445      13.087820      13.084018      13.166492      13.542942      13.322274      13.324548      13.544723      13.546263      13.326673      13.328619      13.547523      14.145692      13.822827      13.822042      14.145178      14.144218      13.820888      13.819411      14.142869      14.899190      14.505203      14.506593      14.900764      14.901844      14.507534      14.507966      14.902357      14.501330      14.894830      14.897188      14.503428      14.141184      13.817663      13.815685      14.139218      14.137021      13.813521      13.811216      14.134646      14.496396      14.498967      14.892180      14.889304      14.886261      14.883112      14.490850      14.493672      14.132139      13.808808      13.806342      14.129549      14.126918      13.803854      13.801380      14.124289      14.485103      14.876710      14.879910      14.487978      14.873561      14.482272      14.479526      14.870506      14.867592      14.864857      14.474437      14.476901      14.116805      14.114559      13.792308      13.794394      13.796620      14.119198      14.121703      13.798958      13.522037      13.299692      13.297436      13.519785      13.517653      13.515660      13.293350      13.295318      13.136467      13.134458      13.047600      13.049714      13.052032      13.138649      13.140997      13.054547      13.146112      13.060113      13.057246      13.143492      13.302066      13.524386      13.526803      13.304531      13.307064      13.529255      13.531716      13.309644      13.151673      13.148846      13.063146      13.066326      13.059924      13.133370      13.129407      13.056328      13.052935      13.049762      13.122253      13.125697      13.271074      13.267581      13.461514      13.465669      13.470178      13.274837      13.278877      13.475075      13.433103      13.427671      12.248732      12.121442      26.328159      -62.792706      -62.352539      26.452265      26.501314      -61.954174      -61.594917      26.501230      12.463373      12.362322      13.423400      13.420038      13.417413      13.415398      12.631179      12.552684      26.466787      -61.272511      -60.984806      26.408976      26.340363      -60.729485      -60.504795      26.266724      12.759712      12.699971      13.413846      13.412652      13.448489      13.451233      13.258773      13.256390      13.111135      13.039322      13.041576      13.113511      13.116163      13.044074      13.046808      13.119081      13.264377      13.457734      13.454317      13.261441      13.250914      13.442311      13.440880      13.249610      13.104249      13.032678      13.033976      13.105584      13.107178      13.035520      13.037304      13.109027      13.254296      13.252475      13.444046      13.446097      13.411754      13.411101      12.854268      12.810928      26.191563      -60.309326      -60.141617      26.118603      26.051556      -60.000149      -59.883541      25.994957      12.920305      12.890493      13.410656      13.410379      13.410223      13.410140      12.961474      12.943926      25.948689      -59.791058      -59.722195      25.913242      25.889210      -59.676544      -59.653801      25.877068      12.978846      12.