<VTKFile type="UnstructuredGrid" version="1.0" byte_order="LittleEndian" header_type="UInt64">
  <UnstructuredGrid>
    <Piece NumberOfPoints="40602" NumberOfCells="20000">
      <CellData Scalars="Scalars_">
        <DataArray type="Float32" Name="Scalars_" format="ascii">
     20.755529      20.755783      20.728966      20.728708      20.684448      20.632685      20.632957      20.684711      20.685240      20.633505      20.634325      20.686029      20.730251      20.729479      20.756292      20.757053      20.758068      20.759333      20.732559      20.731277      20.687082      20.635416      20.636778      20.688396      20.689968      20.638409      20.640306      20.691799      20.735878      20.734093      20.760847      20.762609      20.764618      20.766870      20.740192      20.737911      20.693884      20.642469      20.644896      20.696222      20.698811      20.647579      20.650520      20.701647      20.745483      20.742718      20.769363      20.772095      20.775061      20.778259      20.751726      20.748487      20.704727      20.653715      20.657162      20.708050      20.711609      20.660852      20.664787      20.715403      20.758896      20.755198      20.781687      20.785337      20.789211      20.793303      20.766964      20.762819      20.719427      20.668961      20.673370      20.723677      20.728149      20.678009      20.682875      20.732841      20.775898      20.771324      20.797607      20.802120      20.806841      20.811764      20.785667      20.780680      20.737747      20.687963      20.693268      20.742863      20.748184      20.698786      20.704514      20.753706      20.796236      20.790854      20.816883      20.822195      20.827698      20.833384      20.807573      20.801811      20.759424      20.710443      20.716572      20.765335      20.771433      20.722893      20.729404      20.777714      20.819641      20.813519      20.839251      20.845295      20.851509      20.857889      20.832405      20.825939      20.784174      20.736099      20.742973      20.790806      20.797607      20.750021      20.757236      20.804573      20.845827      20.839037      20.864433      20.871136      20.857510      20.812027      20.820400      20.865608      20.905359      20.929886      20.922087      20.897457      20.889677      20.914408      20.906855      20.882023      20.841688      20.849533      20.803780      20.795664      20.787683      20.833977      20.826405      20.779844      20.772154      20.764616      20.811697      20.818977      20.859873      20.852774      20.877991      20.884995      20.892143      20.867115      20.874500      20.899431      20.837502      20.828894      20.873827      20.882158      20.921513      20.913380      20.937801      20.945827      20.962194      20.953960      20.929752      20.938095      20.899143      20.890598      20.846218      20.855036      20.872961      20.863953      20.907785      20.916519      20.955069      20.946535      20.970526      20.978949      20.996048      20.987457      20.963688      20.972389      20.934246      20.925343      20.882053      20.891226      20.998451      20.957207      20.966824      21.007832      21.044386      21.067146      21.058073      21.035200      21.026058      21.049044      21.040062      21.016964      20.979822      20.989113      20.947628      20.938093      20.928604      20.970583      20.961401      20.919168      20.909788      20.900473      20.943228      20.952282      20.990021      20.981169      21.004717      21.013456      21.022264      20.998941      21.007923      21.031136      20.986153      20.976473      21.017250      21.026703      21.062874      21.053612      21.076260      21.085409      21.103796      21.094589      21.072166      21.081486      21.045692      21.036184      20.995855      21.005581      21.025084      21.015324      21.055223      21.064772      21.100191      21.090830      21.113026      21.122274      21.140814      21.131538      21.109570      21.118959      21.083912      21.074335      21.034855      21.044636      19.803959      19.263199      19.092770      19.705647      20.109798      20.374279      20.400326      20.163179      20.210947      20.423290      20.443224      20.253265      19.970905      19.892242      19.416101      19.552391      18.938440      18.713144      17.693453      18.052095      16.798885      15.071269      14.253846      16.247643      15.625920      13.332736      12.300932      14.928525      16.836828      17.289455      18.459919      18.176943      17.862617      17.515671      15.774312      16.332609      14.150776      11.152433      9.882775      13.288765      12.339624      8.487487      6.981082      11.302061      14.489091      15.160116      17.135275      16.721186      18.224672      19.208689      19.348372      18.470058      18.696571      18.904066      19.597010      19.477903      19.985952      20.050720      20.345144      20.312975      20.277895      19.915619      19.839981      20.240099      20.492743      20.653448      20.656925      20.508638      20.523167      20.536198      20.661768      20.659727      20.751060      20.746960      20.808170      20.815565      20.822777      20.754780      20.758169      20.829832      20.882912      20.874018      20.916775      20.926487      20.966150      21.005106      20.995163      20.956177      20.946198      20.985222      20.975288      20.936209      20.897257      20.856001      20.865051      20.907034      20.877588      20.837601      20.846853      20.887444      20.926212      20.965361      20.955444      20.916208      20.906197      20.945538      20.935648      20.896179      20.857748      20.867689      20.828239      20.818769      20.776388      20.726158      20.732052      20.784683      20.800566      20.792740      20.737478      20.742443      20.662983      20.663336      20.557425      20.547634      20.565548      20.662800      20.661373      20.572012      20.576849      20.659063      20.655893      20.580112      20.581871      20.582203      20.647104      20.651894      20.705717      20.698036      20.740910      20.750109      20.759094      20.712978      20.719797      20.767857      20.809189      20.799501      20.837751      20.847769      20.886160      20.925776      20.915924      20.876143      20.866133      20.906101      20.896311      20.856134      20.817629      20.779835      20.789715      20.827703      20.797434      20.759838      20.769873      20.807537      20.846153      20.886557      20.876846      20.836195      20.826267      20.867184      20.857574      20.816378      20.777229      20.787329      20.749743      20.739599      20.702322      20.663628      20.672722      20.712202      20.731516      20.721941      20.681509      20.689957      20.641571      20.635345      20.578947      20.581196      20.575552      20.628483      20.621035      20.571108      20.509119      20.428572      20.419600      20.508453      20.501503      20.505972      20.407570      20.392168      20.238852      20.271521      20.081242      20.021984      20.131399      20.298592      20.320621      20.173405      19.971308      19.899471      19.578871      19.694227      19.316950      18.808746      18.545000      19.139553      18.931870      18.236544      17.877289      18.689850      19.285561      19.443510      19.814728      19.715485      19.600031      19.466549      18.890478      19.102221      18.409081      17.460609      16.979374      18.084797      17.711924      16.426020      15.792666      17.285122      18.368822      18.647131      19.313120      19.137758      19.673086      19.779276      20.101414      20.040445      20.290358      20.460215      20.474386      20.322489      20.349955      20.485884      20.494865      20.373074      20.200012      19.952616      19.872078      20.154402      20.373653      20.299080      20.289749      20.372149      20.437546      20.491026      20.484161      20.433916      20.428978      20.476521      20.468212      20.422907      20.370584      20.373037      20.305073      20.308180      20.231821      20.220482      20.113482      20.136679      20.016806      19.864990      19.802170      19.976934      19.927282      19.725225      19.631802      19.866243      20.046070      20.083633      20.204710      20.183813      20.156998      20.123386      19.942783      19.999577      19.791990      19.519197      19.384327      19.702440      19.595242      19.223688      19.033314      19.467737      19.791939      19.874147      20.081985      20.031698      20.208141      20.338127      20.351599      20.236427      20.259012      20.276581      20.368210      20.361486      20.440079      20.439671      20.496990      20.501926      20.505695      20.438534      20.434788      20.508146      20.565716      20.613058      20.604609      20.559467      20.552458      20.544773      20.586510      20.595741      20.634834      20.624840      20.661768      20.672020      20.682209      20.644651      20.654261      20.692316      20.729420      20.719219      20.757088      20.767145      20.806532      20.848028      20.838547      20.796740      20.787008      20.829140      20.819813      20.777344      20.737091      20.698811      20.709011      20.747066      20.717318      20.678484      20.688629      20.727171      20.767757      20.810572      20.801424      20.758253      20.748840      20.792376      20.783434      20.739529      20.697849      20.707541      20.668385      20.658346      20.620552      20.583731      20.594120      20.630850      20.651476      20.641163      20.604454      20.614704      20.576965      20.567154      20.527718      20.536501      20.518501      20.557125      20.546921      20.508917      20.499031      20.536583      20.526150      20.488905      20.478590      20.468142      20.505142      20.515659      20.552494      20.542139      20.579897      20.589947      20.600084      20.562893      20.573313      20.610292      20.648384      20.638506      20.678764      20.688255      20.730322      20.774605      20.765896      20.721231      20.712265      20.757311      20.748859      20.703426      20.660137      20.619061      20.628729      20.669390      20.642042      20.600101      20.609514      20.651018      20.694727      20.740543      20.732372      20.686171      20.677765      20.724352      20.716488      20.669518      20.624544      20.633213      20.590834      20.581718      20.540850      20.501568      20.511543      20.550409      20.569946      20.560112      20.521645      20.531849      20.494631      20.484154      20.447014      20.457602      20.436419      20.473738      20.463409      20.425850      20.388306      20.350121      20.360563      20.398937      20.419956      20.409506      20.370798      20.380753      20.338863      20.329918      20.285694      20.292931      20.277575      20.320442      20.310555      20.268738      20.223652      20.230766      20.178600      20.174099      20.118658      20.055664      20.051130      20.119385      20.117521      20.042875      20.030172      20.112556      20.181976      20.181345      20.236731      20.241301      20.244192      20.245087      20.175198      20.180086      20.103893      20.012173      19.987896      20.090847      20.072620      19.956194      19.915739      20.048294      20.154167      20.166767      20.243612      20.239349      20.308798      20.307285      20.361172      20.366554      20.415869      20.459341      20.449999      20.408009      20.399458      20.440269      20.430231      20.390337      20.347155      20.299089      20.303957      20.354645      9.836346      8.259138      6.200420      8.020403      9.711277      11.261409      12.619431      11.292292      12.640659      13.771425      14.743002      13.783141      12.721096      11.394253      10.036662      11.559091      12.853708      13.843866      14.788531      13.947621      14.866754      15.635178      16.238283      15.579316      16.225216      16.784325      17.274508      16.805349      16.239071      15.552247      14.745597      15.558209      16.282976      16.922882      17.390638      16.850826      17.321781      17.710926      18.096413      17.777546      18.176455      18.434357      18.728540      18.522869      18.271875      17.862669      17.482323      17.966808      17.597424      17.151800      16.470299      17.022987      16.359476      15.600948      14.785200      15.683481      14.875766      13.813993      12.663622      13.915062      15.017073      15.974834      16.616179      15.807839      17.896305      17.309038      16.796703      17.493401      18.077175      18.561010      18.797813      18.388824      18.647079      18.993471      19.154398      18.860229      18.508089      18.231035      17.735758      18.089861      18.382624      18.736513      18.924047      18.623745      18.821516      18.982992      19.201834      19.077288      19.295082      19.389154      19.548914      19.479666      19.393173      19.178617      19.035385      19.286074      19.495138      19.668722      19.723715      19.573175      19.635567      19.684862      19.800488      19.767002      19.877825      19.898970      19.983179      19.971510      19.954605      19.849459      19.812468      19.931450      19.900858      19.861439      19.705755      19.765209      19.599787      19.398451      19.279579      19.514273      19.409096      19.134367      18.957962      19.280643      19.540863      19.749374      19.811573      19.631851      17.277979      16.244572      15.524641      16.742699      17.707340      18.458143      18.733843      18.096188      18.425507      18.966969      19.163261      18.703331      18.115871      17.375235      16.856771      17.732092      18.709984      18.180195      17.812611      18.438984      18.936785      19.327793      19.465021      19.132132      19.294853      19.578840      19.672644      19.429720      19.124704      18.744692      18.487972      18.936375      15.453809      16.183887      17.010212      16.432905      17.253748      17.702511      18.275599      17.932928      17.034590      17.523048      16.718224      16.081619      14.931597      15.745846      14.587779      13.565356      10.962971      12.364673      13.971036      12.843624      14.439581      15.327936      16.454693      15.768965      14.015194      14.961535      13.397566      12.181877      10.001928      11.527853      9.337389      7.466004      0.891539      -2.457912      -5.840126      -2.121505      1.371008      4.580862      6.823773      3.999285      6.324877      8.789018      10.496450      8.363018      5.971528      3.340091      0.602793      3.586573      9.876640      7.882727      5.761676      8.061475      10.133720      11.968585      13.229159      11.660002      12.966337      14.301975      15.210015      14.077394      12.778189      11.308882      9.723804      11.440510      1.151755      3.837342      5.920888      3.515479      5.746564      7.871029      9.670936      7.821855      3.253436      5.689696      3.316290      0.564087      -2.273410      0.787170      -1.867148      -5.220371      -12.871338      -8.896649      -5.665547      -9.376063      -5.929550      -2.518427      0.497530      -2.585905      -9.715535      -5.994879      -9.655314      -13.661399      -17.605806      -13.378513      -17.094666      -21.479107      -45.192268      -48.385918      -51.238327      -48.258816      -44.871323      -41.070694      -37.650688      -41.611248      -38.114517      -34.025330      -30.214401      -34.401596      -38.284405      -41.861675      -45.249653      -41.840069      -38.176006      -34.482666      -30.480078      -34.281578      -30.182457      -25.903145      -21.959585      -26.298983      -22.172709      -17.869957      -13.702353      -17.872107      -22.107725      -26.411800      -30.493998      -26.236372      -21.725586      -16.970251      -12.952159      -17.579613      -13.472891      -9.530465      -5.451393      -9.082178      -4.819563      -1.568550      2.044736      -0.794110      -3.937500      -8.361826      -12.133725      -7.363378      -11.012254      -14.794661      -19.959156      -16.043575      -21.005550      -25.742830      -29.616402      -24.914129      -28.683479      -33.331051      -36.870129      -32.300838      -27.409538      -22.247650      -18.581078      -23.751461      -7.857602      -13.220069      -16.866703      -11.320415      -5.833705      -0.673587      1.983470      -2.722442      0.174305      4.394371      6.553515      2.813897      -1.430802      -4.535750      -9.585811      -6.086280      -2.805718      1.407759      3.961629      0.200471      2.910824      5.329132      8.244674      6.236678      9.147858      10.772035      12.911675      11.632104      10.157612      7.290452      5.183370      8.470159      11.249476      13.534154      14.524443      12.561269      13.699621      14.681750      16.114252      15.379531      16.714111      17.249969      18.133417      17.752457      17.307302      16.088858      15.362439      16.789240      16.188864      15.496174      13.555749      14.522383      12.393434      9.747442      8.039574      11.087133      9.600798      6.112406      3.955576      7.921382      11.190804      13.791947      14.700744      12.449472      -8.602011      -14.934350      -17.449272      -11.064662      -4.621258      1.575148      3.555917      -2.271376      0.057321      5.443361      7.206603      2.305317      -3.380210      -9.526761      -12.291506      -6.007495      1.650626      -3.789353      -6.650291      -0.805870      4.427087      8.823425      10.283303      6.389553      8.170190      11.592739      12.759278      9.767854      6.038043      1.565724      -1.030064      3.942488      -23.800308      -20.396267      -14.813621      -18.192104      -12.404999      -9.093417      -3.541735      -6.566152      -12.730684      -9.666728      -15.628903      -18.734507      -24.580967      -21.450397      -27.071421      -30.202339      -36.012672      -33.185452      -27.577192      -30.432865      -24.563139      -21.714563      -15.673557      -18.491299      -23.732254      -21.179028      -27.275120      -29.845785      -35.697723      -33.141792      -38.675751      -41.166965      -52.213390      -55.535637      -57.288780      -54.186924      -50.475246      -46.124580      -43.759106      -48.289547      -45.892086      -41.199612      -38.452694      -43.284496      -47.602711      -51.368546      -53.566364      -50.020515      -42.096073      -46.260143      -48.933998      -44.959534      -40.472893      -35.527401      -32.434074      -37.467113      -34.279366      -29.183207      -25.784681      -30.922665      -35.752216      -40.215843      -43.350773      -39.022408      -56.096783      -53.805946      -51.051605      -53.569759      -50.623272      -47.878479      -44.266319      -47.222031      -52.382278      -49.928177      -53.104275      -55.327732      -57.818336      -55.820683      -58.125847      -59.912769      -62.848938      -61.479576      -59.581078      -61.129593      -59.056080      -57.306091      -54.588905      -56.558563      -59.848495      -58.305992      -60.596828      -61.948338      -63.669075      -62.485291      -64.042892      -65.082047      19.682961      19.740837      19.735727      19.680042      19.621044      19.558321      19.555059      19.621199      19.618649      19.548298      19.537174      19.612713      19.682127      19.683836      19.744448      19.746132      19.805403      19.801050      19.854172      19.860575      19.912239      19.960941      19.951921      19.904310      19.895742      19.942524      19.932901      19.886736      19.838711      19.846798      19.795303      19.788492      19.780901      19.772770      19.821241      19.830130      19.877462      19.923183      19.913481      19.868063      19.858664      19.903894      19.894503      19.849373      19.803154      19.812204      19.764299      19.755663      19.706705      19.656084      19.663265      19.714729      19.729477      19.722393      19.669842      19.675541      19.618763      19.614836      19.557089      19.558798      19.553694      19.609667      19.603598      19.549036      19.492191      19.432852      19.433620      19.495096      19.495293      19.496302      19.432177      19.427887      19.356215      19.364407      19.292694      19.279915      19.301033      19.369017      19.370806      19.305843      19.237764      19.229425      19.153961      19.166370      19.091486      19.012945      18.990623      19.074425      19.051043      18.960793      18.921671      19.019808      19.112036      19.198635      19.216747      19.136282      19.037271      19.140566      19.173769      19.079660      18.978886      18.871111      18.806519      18.926054      18.858646      18.724779      18.622135      18.773445      18.912914      18.982599      19.097109      19.041103      19.158655      19.266281      19.300013      19.202717      19.236387      19.261589      19.343523      19.325230      19.407602      19.419998      19.491451      19.484037      19.472162      19.389616      19.364729      19.454769      19.430578      19.331377      19.287682      19.398067      19.300409      19.355410      19.231384      19.159788      19.001793      19.092909      18.938625      18.824802      19.029661      19.165253      19.222126      19.101894      18.969780      18.879820      18.714718      18.824934      18.666588      18.494081      18.335217      18.533440      18.368446      18.139078      17.897966      18.164978      18.407736      18.627260      18.767239      18.577536      17.942019      18.241203      18.454182      18.198572      17.915140      17.602739      17.242594      17.609566      17.237215      16.804850      16.274729      16.785137      17.247042      17.628572      17.980247      17.661760      18.031303      18.358223      18.572334      18.294083      18.508772      18.683416      18.887959      18.746681      18.957117      19.069654      19.230450      19.142397      19.032507      18.817558      18.645481      18.896324      19.114153      19.220041      19.383039      19.302420      19.464529      19.603764      19.646614      19.524324      19.571169      19.679493      19.704105      19.607271      19.497301      19.372337      19.304913      19.447058      19.425314      19.536140      19.565567      19.466351      19.497549      19.520668      19.602571      19.587244      19.668243      19.677187      19.745380      19.741589      19.734043      19.654377      19.634489      19.721886      19.799774      19.869493      19.870623      19.805756      19.808266      19.807962      19.865702      19.869192      19.925215      19.919298      19.969408      19.977112      19.983814      19.929667      19.932274      19.989231      19.930098      19.994823      19.993031      19.932592      19.865213      19.789545      19.774141      19.857079      19.844263      19.752468      19.723223      19.825785      19.914080      19.924170      19.994152      19.990480      20.057095      20.055958      20.111132      20.115780      20.168152      20.215603      20.206802      20.161022      20.152946      20.197414      20.187582      20.144121      20.097784      20.047737      20.052708      20.105040      20.041376      20.089605      20.080713      20.033913      20.025591      20.016621      20.061480      20.071287      20.114775      20.104473      20.146046      20.156570      20.167057      20.124895      20.134720      20.177427      20.218349      20.258039      20.247421      20.207739      20.197136      20.186598      20.226505      20.236895      20.276236      20.266113      20.305750      20.315519      20.325502      20.286541      20.296999      20.335672      20.318214      20.356466      20.346004      20.307570      20.268702      20.228895      20.239302      20.279350      20.289923      20.249479      20.259329      20.300350      20.339542      20.328888      20.367029      20.377655      20.415342      20.453190      20.443104      20.404924      20.394627      20.384472      20.423403      20.433168      20.472538      20.463213      20.504292      20.513155      20.522209      20.482048      20.491730      20.531445      20.572767      20.563992      20.607712      20.616041      20.661436      20.708786      20.701252      20.653528      20.645796      20.693890      20.686708      20.638248      20.591608      20.599566      20.555397      20.546995      20.538794      20.530802      20.576290      20.583847      20.630894      20.679712      20.672905      20.623735      20.616781      20.666296      20.659885      20.610035      20.561815      20.568943      20.523027      20.515480      20.470959      20.478952      20.436480      20.428024      20.386389      20.345736      20.355097      20.395304      20.404455      20.364685      20.374483      20.413826      20.454086      20.495628      20.487179      20.445169      20.404184      20.448458      20.441481      20.396780      20.353346      20.310915      20.319197      20.361189      20.369318      20.327770      20.336622      20.377722      20.419817      20.411865      20.455702      20.463205      20.508165      20.501091      20.548239      20.554911      20.603506      20.653683      20.647692      20.597197      20.591114      20.641918      20.636366      20.585266      20.535614      20.541803      20.494267      20.487698      20.481390      20.475353      20.523987      20.529673      20.579655      20.631041      20.625948      20.574286      20.569166      20.621092      20.616476      20.564301      20.513409      20.518564      20.469593      20.464115      20.416407      20.370131      20.376329      20.422235      20.434780      20.428362      20.382845      20.389664      20.345802      20.338568      20.295286      20.302940      20.287964      20.331652      20.325066      20.280983      20.237652      20.245026      20.202618      20.194857      20.152397      20.110083      20.118561      20.160530      20.169031      20.127409      20.136599      20.177883      20.219217      20.260826      20.252756      20.210745      20.256205      20.296215      20.286936      20.246536      20.237133      20.277933      20.269224      20.228020      20.146105      20.187059      20.196539      20.155893      20.165932      20.206293      20.216293      20.176182      20.094090      20.135557      20.125170      20.083712      20.073412      20.114939      20.104918      20.063257      19.977516      20.020878      20.031033      19.987509      19.997437      20.041245      20.051428      20.007185      20.001038      19.957731      19.967562      20.010857      20.053308      20.095148      20.085670      20.043613      20.034222      20.076521      20.067732      20.025169      19.982227      19.991476      19.948097      19.938728      19.929682      19.921005      19.964834      19.973333      20.016497      20.059330      20.051344      20.008232      20.000408      20.043797      20.036707      19.993046      19.949165      19.904936      19.912745      19.956768      19.897617      19.942053      19.935453      19.890816      19.884558      19.878866      19.923887      19.929392      19.973961      19.968658      20.013290      20.018373      20.023979      19.979803      19.986172      20.030096      20.073956      20.117882      20.112310      20.068106      20.062748      20.057896      20.102594      20.107212      20.151899      20.147522      20.192827      20.196962      20.201534      20.156734      20.162022      20.206533      20.173910      20.217787      20.211954      20.167751      20.123915      20.080284      20.087076      20.130396      20.137314      20.094320      20.101994      20.144653      20.187475      20.180489      20.224020      20.230646      20.274357      20.318819      20.312918      20.268095      20.262209      20.256704      20.302191      20.307373      20.353489      20.348619      20.396206      20.400776      20.405670      20.358702      20.364252      20.410883      20.458925      20.454029      20.503922      20.508526      20.559692      20.612106      20.607988      20.555349      20.551271      20.604122      20.600515      20.547468      20.495567      20.499599      20.449432      20.445143      20.441162      20.437496      20.488380      20.491825      20.543940      20.597170      20.594090      20.540689      20.537725      20.591280      20.588739      20.535046      20.482393      20.485235      20.434149      20.431126      20.381266      20.384491      20.336132      20.332695      20.285227      20.238668      20.242565      20.288891      20.292942      20.246874      20.251589      20.297379      20.344101      20.391964      20.388058      20.339935      20.324619      20.373697      20.371885      20.322685      20.274557      20.227312      20.229507      20.276619      20.279087      20.232136      20.235189      20.281958      20.329628      20.326935      20.375866      20.378391      20.428429      20.426062      20.477636      20.479860      20.532658      20.586475      20.584488      20.530561      20.528759      20.582781      20.581354      20.527254      20.474129      20.475725      20.424026      20.422327      20.420965      20.419943      20.471889      20.472849      20.526049      20.580212      20.579353      20.525143      20.524540      20.578781      20.578493      20.524237      20.470926      20.471249      20.419260      20.418919      20.368248      20.318806      20.319195      20.368612      20.370432      20.369341      20.319971      20.321136      