<VTKFile type="UnstructuredGrid" version="1.0" byte_order="LittleEndian" header_type="UInt64">
  <UnstructuredGrid>
    <Piece NumberOfPoints="40602" NumberOfCells="20000">
      <CellData Scalars="Scalars_">
        <DataArray type="Float32" Name="Scalars_" format="ascii">
     23.347952      23.348011      23.367746      23.367682      23.419289      23.501888      23.501989      23.419369      23.419527      23.502188      23.502485      23.419760      23.368065      23.367874      23.348125      23.348295      23.348513      23.348774      23.368607      23.368309      23.420065      23.502874      23.503351      23.420437      23.420868      23.503908      23.504539      23.421350      23.369329      23.368950      23.349075      23.349403      23.349754      23.350117      23.370163      23.369738      23.421875      23.505238      23.505989      23.422436      23.423018      23.506786      23.507614      23.423609      23.371021      23.370596      23.350477      23.350824      23.351145      23.351423      23.371805      23.371429      23.424198      23.508465      23.509319      23.424770      23.425310      23.510168      23.510992      23.425802      23.372393      23.372131      23.351646      23.351799      23.351860      23.351814      23.372658      23.372576      23.426231      23.511774      23.512501      23.426580      23.426828      23.513155      23.513714      23.426960      23.372454      23.372623      23.351645      23.351330      23.350851      23.350189      23.371632      23.372129      23.426954      23.514162      23.514481      23.426792      23.426455      23.514648      23.514647      23.425920      23.370031      23.370939      23.349323      23.348232      23.346897      23.345295      23.367485      23.368887      23.425169      23.514454      23.514050      23.424179      23.422930      23.513412      23.512522      23.421400      23.363823      23.365805      23.343403      23.341204      23.338671      23.335785      23.358873      23.361521      23.419569      23.511356      23.509895      23.417414      23.414913      23.508118      23.506002      23.412046      23.352463      23.355862      23.332523      23.328863      23.379887      23.479889      23.474285      23.373306      23.308706      23.282640      23.290268      23.315987      23.322706      23.297323      23.303831      23.328890      23.391449      23.385927      23.484982      23.489584      23.493717      23.396477      23.401028      23.497404      23.500668      23.503525      23.408792      23.405127      23.344414      23.348654      23.324785      23.320263      23.315279      23.339722      23.334553      23.309809      23.461462      23.468151      23.366165      23.358444      23.292381      23.300844      23.274422      23.265593      23.246010      23.256128      23.283297      23.273569      23.341175      23.350121      23.454199      23.446341      23.428757      23.437868      23.331587      23.321335      23.252102      23.263176      23.235216      23.223728      23.198589      23.211527      23.240322      23.227819      23.298761      23.310400      23.418989      23.408545      23.195959      23.314764      23.298183      23.178001      23.099474      23.066378      23.085865      23.118443      23.136539      23.104473      23.122215      23.153782      23.229330      23.213064      23.330513      23.345446      23.359581      23.244780      23.259428      23.372938      23.385540      23.397402      23.286400      23.273294      23.200565      23.214573      23.184898      23.170435      23.155178      23.185778      23.170189      23.139111      23.262447      23.280750      23.159174      23.139456      23.058861      23.079620      23.045992      23.024694      22.979300      23.002468      23.037186      23.014576      23.097298      23.118835      23.243261      23.223173      23.180239      23.202169      23.074829      23.051416      22.966509      22.991022      22.955177      22.930088      22.876970      22.904022      22.941031      22.914576      23.001719      23.027048      23.157372      23.133554      24.571838      24.483433      24.409380      24.526012      24.558186      24.529222      24.548420      24.587048      24.612392      24.565350      24.580111      24.634415      24.646727      24.611946      24.547985      24.603823      24.488102      24.399052      24.137623      24.277094      23.943445      23.455498      23.137869      23.730145      23.480362      22.764330      22.326754      23.189165      23.786591      23.975060      24.295721      24.176592      24.040113      23.884750      23.319935      23.569244      22.851204      21.816198      21.223095      22.460762      22.011820      20.535259      19.758038      21.498423      22.713060      23.035553      23.709036      23.511650      24.003853      24.279181      24.350885      24.122860      24.229765      24.325064      24.474110      24.415813      24.489288      24.525642      24.507679      24.483738      24.457376      24.449041      24.404886      24.428616      24.382748      24.288723      24.305651      24.403429      24.422483      24.439892      24.335785      24.321342      24.191042      24.204649      24.053202      24.039177      24.024195      24.176386      24.160681      24.008251      23.838676      23.855690      23.676973      23.658438      23.474575      23.295835      23.317923      23.494854      23.514212      23.339073      23.359303      23.532656      23.711298      23.886942      23.871775      23.694590      23.742039      23.914562      23.901199      23.727110      23.550201      23.378618      23.397034      23.566858      23.582644      23.414566      23.431232      23.597576      23.769316      23.756102      23.927048      23.938675      24.099962      24.248789      24.239258      24.089638      24.066277      24.078415      24.228739      24.217211      24.348982      24.360950      24.469812      24.455660      24.482386      24.371714      24.381304      24.493437      24.503025      24.389763      24.397133      24.511223      24.518101      24.523739      24.408806      24.403463      24.271761      24.277660      24.132803      24.125807      24.118019      24.265007      24.257360      24.109415      23.949467      23.959444      23.793280      23.781702      23.611673      23.447046      23.462030      23.624954      23.637440      23.476198      23.489574      23.649151      23.814100      23.977053      23.968630      23.804071      23.831959      23.991703      23.984735      23.823389      23.660107      23.502176      23.514025      23.670330      23.679842      23.525139      23.535540      23.688665      23.847042      23.839836      23.997986      24.003609      24.153507      24.293480      24.290615      24.149363      24.139042      24.144550      24.287050      24.282743      24.413210      24.416731      24.531603      24.528214      24.533983      24.419418      24.421326      24.535429      24.634384      24.716682      24.713583      24.632656      24.625469      24.629723      24.708818      24.702211      24.754831      24.765966      24.797302      24.778524      24.812054      24.774410      24.780457      24.823257      24.841911      24.822500      24.800690      24.832394      24.789810      24.708414      24.634668      24.740477      24.679628      24.544313      24.434441      24.605341      24.712498      24.761139      24.797804      24.767040      24.729336      24.683718      24.582134      24.653358      24.515406      24.301695      24.142200      24.407305      24.278172      23.951509      23.724535      24.124765      24.396095      24.497044      24.629107      24.564329      24.651722      24.692442      24.701937      24.676588      24.653324      24.592812      24.603571      24.669340      24.682680      24.612516      24.619774      24.693567      24.740681      24.755186      24.726702      24.723171      24.779938      24.837505      24.839870      24.783392      24.712732      24.628458      24.624977      24.708975      24.704487      24.620909      24.616316      24.699354      24.770266      24.775520      24.833817      24.828995      24.875391      24.879057      24.910749      24.909174      24.929890      24.936918      24.930504      24.928200      24.923435      24.919836      24.904085      24.915014      24.906893      24.910124      24.881149      24.881392      24.879461      24.874998      24.890657      24.900585      24.902254      24.882280      24.853273      24.884359      24.860401      24.815720      24.768047      24.829302      24.857340      24.876484      24.867580      24.856731      24.831354      24.784376      24.786417      24.836733      24.839745      24.840698      24.785732      24.786802      24.717640      24.715656      24.631279      24.633368      24.634642      24.718561      24.718290      24.635012      24.536011      24.422503      24.422997      24.535797      24.534853      24.533239      24.422125      24.422855      24.298243      24.298676      24.164028      24.162247      24.159918      24.297256      24.295681      24.157015      24.008598      24.012980      23.859543      23.853603      23.696823      23.545250      23.554289      23.704334      23.711226      23.562677      23.570438      23.717516      23.869652      24.020027      24.016781      23.864885      23.877558      24.024960      24.022745      23.873869      23.723228      23.577593      23.584160      23.728386      23.733009      23.590162      23.595623      23.737122      23.883448      23.880743      24.026697      24.027979      24.166275      24.295540      24.296989      24.166389      24.165295      24.166073      24.298016      24.298590      24.420847      24.419064      24.528231      24.531013      24.524942      24.416815      24.414137      24.521196      24.517035      24.411066      24.407639      24.512503      24.507639      24.502481      24.399836      24.403885      24.288952      24.286104      24.162008      24.163593      24.164850      24.291492      24.293697      24.165752      24.028831      24.029280      23.887508      23.885696      23.740746      23.600561      23.605000      23.743902      23.746613      23.608959      23.612459      23.748901      23.889919      24.029057      24.029348      23.888908      23.890862      24.027494      24.028431      23.890564      23.750788      23.615526      23.618177      23.752295      23.753443      23.620438      23.622326      23.754257      23.890514      23.890839      24.026270      24.024778      24.152851      24.272160      24.275978      24.155514      24.160116      24.157944      24.279591      24.282974      24.395523      24.390974      24.491419      24.497063      24.485580      24.386219      24.381281      24.479576      24.566919      24.643497      24.651396      24.573917      24.587400      24.580755      24.659126      24.666649      24.735083      24.726843      24.784292      24.793045      24.775225      24.718357      24.709679      24.765915      24.812679      24.822439      24.860415      24.850431      24.879589      24.900515      24.910072      24.889523      24.898825      24.918755      24.926342      24.907330      24.878897      24.869944      24.831869      24.840881      24.849369      24.857212      24.894482      24.887131      24.914845      24.932573      24.937141      24.921146      24.925970      24.939688      24.939781      24.929005      24.905745      24.900761      24.864273      24.870394      24.823204      24.816593      24.757698      24.764292      24.693661      24.611258      24.605789      24.687481      24.680880      24.599958      24.593815      24.673916      24.743017      24.801407      24.809290      24.750580      23.406933      23.170816      22.812716      23.094372      23.356461      23.598034      23.829138      23.626627      23.844088      24.014627      24.162657      24.018238      23.861662      23.659119      23.460344      23.693451      23.880230      24.023468      24.151896      24.029032      24.146751      24.239077      24.331829      24.253014      24.352123      24.418428      24.498585      24.443754      24.372143      24.266390      24.156862      24.279972      24.392509      24.494295      24.556446      24.468885      24.527660      24.572075      24.638725      24.603672      24.671675      24.698410      24.751043      24.731609      24.703693      24.634726      24.585245      24.665369      24.614300      24.547653      24.436865      24.520426      24.413877      24.294600      24.170378      24.311140      24.181170      24.014059      23.818640      24.018019      24.196129      24.353199      24.462004      24.330429      24.673653      24.576242      24.489702      24.606314      24.703848      24.783197      24.820492      24.754843      24.793459      24.847990      24.867439      24.821901      24.764757      24.725546      24.643759      24.695658      24.734758      24.793571      24.813881      24.763384      24.783461      24.796574      24.834965      24.827248      24.863005      24.866198      24.890247      24.890778      24.887733      24.855289      24.842007      24.880287      24.908634      24.927261      24.926191      24.911333      24.910599      24.907080      24.916636      24.922480      24.926405      24.918825      24.913513      24.922308      24.929905      24.932373      24.936344      24.936012      24.940283      24.942301      24.936356      24.937855      24.925089      24.901720      24.889652      24.918947      24.907970      24.871298      24.845306      24.891121      24.921570      24.937527      24.941576      24.931189      24.466778      24.262665      24.080034      24.330582      24.524591      24.668381      24.738317      24.623632      24.703365      24.794147      24.838120      24.766930      24.665621      24.530954      24.411072      24.577032      24.791615      24.703516      24.627098      24.736141      24.816969      24.872143      24.897833      24.855719      24.885056      24.916553      24.929461      24.906565      24.867151      24.810045      24.763561      24.834576      24.242241      24.380024      24.520199      24.411283      24.553509      24.637806      24.734013      24.670410      24.487223      24.589361      24.447096      24.313921      24.104700      24.274725      24.070370      23.857212      23.270777      23.594128      23.894209      23.634872      23.943895      24.148413      24.359631      24.201363      23.766632      24.006178      23.692381      23.384352      22.927681      23.316669      22.874830      22.391653      21.119642      20.386257      19.386648      20.269953      21.065073      21.771862      22.363085      21.778534      22.365372      22.848446      23.245558      22.846390      22.395267      21.891764      21.212141      21.820049      23.249954      22.904255      22.448982      22.866022      23.239326      23.569332      23.832321      23.559174      23.818529      24.045029      24.216225      24.027924      23.814501      23.575663      23.274944      23.561953      21.829718      22.371473      22.708538      22.234009      22.610479      23.022268      23.311476      22.957634      21.988733      22.522343      22.104912      21.486401      20.942392      21.652475      21.166887      20.358892      18.191721      19.377823      20.078714      19.032787      19.817078      20.732468      21.336857      20.543362      18.419504      19.581213      18.710484      17.389505      16.307381      17.772356      16.785601      15.198908      7.528437      6.866651      6.167238      6.778224      7.445162      8.179996      9.055757      8.253987      9.172682      10.049410      11.176267      10.215182      9.348529      8.381082      7.662182      8.565003      9.587934      10.445191      11.688117      10.745866      12.056321      13.540162      14.699320      13.097804      14.270394      15.882029      17.050135      15.512249      13.907105      12.741468      11.398067      12.454675      13.652519      15.056827      16.598150      15.230814      16.780239      18.182102      19.243336      18.013239      19.158142      20.200842      21.054159      20.186089      19.140287      17.918186      16.503611      17.903629      16.500551      14.995267      13.477713      14.977980      13.521183      12.262592      11.036873      12.170861      10.981309      9.955350      9.001235      9.932519      10.997274      12.225533      13.521279      12.158795      16.798395      15.115367      13.658097      15.348786      17.124708      18.796185      19.866753      18.417149      19.555555      20.773642      21.531227      20.522272      19.332172      18.143988      16.595854      17.976366      19.196171      20.341673      21.181765      20.231318      21.091671      21.803995      22.453768      21.878283      22.551434      23.008495      23.473877      23.117426      22.684908      21.997433      21.328125      22.161810      22.851791      23.410130      23.710859      23.252604      23.583757      23.856407      24.163378      23.959164      24.253099      24.402538      24.581696      24.475155      24.345118      24.071125      23.850571      24.187332      23.996841      23.767889      23.264231      23.584356      23.047203      22.368267      21.786858      22.610682      22.087336      21.090054      20.257853      21.461927      22.422422      23.166967      23.493820      22.880608      13.896474      11.989162      11.066883      12.813765      15.043635      17.530397      18.572083      16.250677      17.438116      19.531343      20.389973      18.555437      16.416552      14.214944      13.033404      15.134096      18.808380      16.879662      15.545444      17.659384      19.570375      21.138025      21.775969      20.464628      21.229794      22.318638      22.778563      21.876970      20.717043      19.270779      18.136961      19.832485      11.249800      12.377441      13.901538      12.630176      14.299655      15.722895      17.575102      16.238064      13.537517      14.852803      13.015221      11.881828      10.517138      11.508061      10.255653      9.378934      7.925658      8.606126      9.642178      8.870137      9.997994      10.881302      12.381496      11.362368      9.669348      10.463017      9.218504      8.531273      7.590987      8.189708      7.327472      6.802716      5.396797      4.895746      4.572475      5.034019      5.548201      6.130867      6.593031      5.956892      6.426357      7.121777      7.725100      6.963876      6.296485      5.703251      5.270601      5.815389      7.476660      6.769997      6.200530      6.847490      7.577569      8.412000      9.192708      8.276572      9.071260      10.078991      11.084546      9.973544      9.007863      8.160247      7.420080      8.193274      5.018503      5.554107      6.119678      5.543316      6.110979      6.734282      7.409108      6.731844      5.619899      6.138351      5.566123      5.091588      4.604278      5.040705      4.552579      4.149244      3.505122      3.802054      4.227195      3.903234      4.324972      4.680072      5.168680      4.777659      4.151219      4.440448      4.020268      3.760449      3.392370      3.626703      3.253038      3.040814      24.770113      24.782656      24.770361      24.757765      24.741436      24.721647      24.733826      24.753746      24.766003      24.745848      24.757538      24.778059      24.794781      24.782492      24.795052      24.807447      24.815773      24.803385      24.807167      24.819437      24.818087      24.811327      24.799582      24.806034      24.794153      24.788036      24.776739      24.782501      24.783087      24.795027      24.791071      24.778915      24.766989      24.755360      24.760046      24.771408      24.771132      24.765736      24.755070      24.760092      24.749424      24.744772      24.734880      24.739164      24.738462      24.749050      24.744081      24.733206      24.723785      24.710558      24.721878      24.734907      24.758255      24.746416      24.733564      24.745554      24.729193      24.717121      24.697367      24.709452      24.685493      24.705311      24.693842      24.673925      24.651068      24.625505      24.637115      24.662685      24.686588      24.674561      24.648930      24.660828      24.632380      24.620687      24.590023      24.601433      24.578522      24.608999      24.597448      24.567087      24.534597      24.545860      24.511173      24.500134      24.463842      24.425852      24.436285      24.474604      24.485153      24.446396      24.455931      24.495266      24.532722      24.568161      24.557108      24.522102      24.552008      24.588783      24.578804      24.542788      24.504665      24.464581      24.471975      24.513023      24.519945      24.477669      24.481123      24.524952      24.566452      24.560038      24.597795      24.605469      24.641846      24.675417      24.665684      24.633064      24.623198      24.612566      24.643911      24.655090      24.684284      24.672668      24.698648      24.710598      24.722265      24.695478      24.706013      24.733452      24.743912      24.715605      24.723913      24.753363      24.767778      24.761457      24.730532      24.734964      24.698025      24.695793      24.657412      24.657118      24.654531      24.690912      24.683960      24.649155      24.611362      24.614939      24.572302      24.570745      24.527466      24.481682      24.478554      24.526785      24.522057      24.470770      24.457157      24.512245      24.564056      24.612406      24.615549      24.570375      24.533596      24.590816      24.604549      24.552244      24.496090      24.436287      24.406410      24.472055      24.438271      24.365404      24.310678      24.392454      24.468895      24.506477      24.569790      24.539745      24.604794      24.663870      24.680969      24.628010      24.643526      24.652822      24.696898      24.691557      24.734758      24.736614      24.771824      24.772989      24.770540      24.728521      24.716835      24.763584      24.804031      24.806915      24.837540      24.838100      24.865726      24.886829      24.881092      24.862305      24.856527      24.873514      24.864489      24.848883      24.828117      24.802378      24.806118      24.834011      24.796301      24.820364      24.811163      24.788395      24.779078      24.768696      24.789745      24.800861      24.818497      24.806839      24.819727      24.831749      24.843353      24.829556      24.839779      24.854342      24.863829      24.867979      24.856144      24.852308      24.840357      24.828135      24.831755      24.844027      24.842426      24.830244      24.823217      24.835186      24.847162      24.854548      24.866503      24.859066      24.889423      24.882250      24.870798      24.878176      24.879385      24.874733      24.884800      24.890181      24.900162      24.893766      24.901318      24.909079      24.909960      24.900084      24.893291      24.903770      24.890270      24.879499      24.858370      24.869164      24.840099      24.802671      24.792488      24.829515      24.818754      24.782190      24.771835      24.807892      24.836081      24.856899      24.868336      24.847313      24.845291      24.824755      24.813406      24.833597      24.821894      24.810249      24.790871      24.802092      24.775278      24.764566      24.730782      24.740906      24.751150      24.786100      24.796988      24.761473      24.717655      24.664959      24.656013      24.707985      24.698397      24.688923      24.638382      24.647144      24.586555      24.578550      24.508865      24.516069      24.523340      24.594648      24.602804      24.530651      24.619188      24.545298      24.537979      24.610992      24.673948      24.727375      24.737104      24.682953      24.691935      24.746801      24.756422      24.700857      24.635473      24.627359      24.552580      24.559795      24.473436      24.376188      24.370966      24.467190      24.460859      24.454475      24.360231      24.365639      24.259720      24.255322      24.140324      24.143692      24.146917      24.264008      24.268162      24.149979      24.023043      24.021088      23.889053      23.889912      23.754757      23.623865      23.625078      23.754963      23.754900      23.625984      23.626606      23.754587      23.886652      23.887959      24.018932      24.016600      24.014109      24.011484      23.883480      23.885153      23.754045      23.626965      23.627081      23.753296      23.752361      23.626974      23.626669      23.751259      23.879709      23.881660      24.008747      24.005915      24.125849      24.129574      24.241684      24.237062      24.338247      24.428860      24.435228      24.343752      24.349264      24.441635      24.448059      24.354765      24.250834      24.136833      24.133244      24.246281      24.223269      24.114529      24.110775      24.218760      24.316740      24.404211      24.410208      24.321999      24.327351      24.416328      24.422552      24.332773      24.232441      24.227835      24.118305      24.122086      24.003012      24.000055      23.875502      23.877649      23.750013      23.626184      23.625540      23.748642      23.747166      23.624754      23.623852      23.745605      23.871016      23.873283      23.997065      23.994062      23.991064      23.988089      23.866407      23.868717      23.743977      23.622849      23.621765      23.742302      23.740597      23.620617      23.619427      23.738880      23.861818      23.864101      23.985155      23.982283      24.096352      24.201672      24.205765      24.099833      24.107061      24.103409      24.209990      24.214327      24.311592      24.306574      24.392668      24.398357      24.387159      24.301704      24.297001      24.381851      24.456238      24.462139      24.526957      24.520477      24.575073      24.620625      24.628204      24.582113      24.589445      24.636103      24.644299      24.597048      24.540684      24.474619      24.468271      24.533699      24.570658      24.501751      24.494747      24.562902      24.555307      24.487877      24.481159      24.547894      24.652769      24.604902      24.612986      24.661491      24.670443      24.621277      24.629749      24.679596      24.754007      24.720808      24.711021      24.743637      24.733490      24.701450      24.692123      24.723600      24.765343      24.747812      24.758223      24.776224      24.787365      24.768894      24.779789      24.798721      24.727905      24.744511      24.754761      24.737696      24.713995      24.683069      24.674309      24.704702      24.695749      24.665869      24.657772      24.687160      24.709415      24.718470      24.734627      24.725136      24.716070      24.707451      24.692549      24.700768      24.678957      24.650040      24.642691      24.671162      24.663795      24.635742      24.629217      24.656874      24.677485      24.691650      24.699305      24.684782      24.684507      24.670677      24.664377      24.677898      24.671835      24.666336      24.653357      24.658598      24.638962      24.633989      24.607628      24.612318      24.617489      24.644442      24.650419      24.623127      24.588167      24.544886      24.539963      24.582882      24.578032      24.573631      24.531343      24.535446      24.483910      24.480116      24.419333      24.422812      24.426640      24.488087      24.492636      24.430805      24.502796      24.440100      24.435297      24.497543      24.550200      24.593876      24.599993      24.555891      24.561945      24.606501      24.613384      24.568346      24.514280      24.508381      24.445202      24.450586      24.376760      24.292479      24.288157      24.371902      24.367294      24.362949      24.280169      24.284048      24.190342      24.186932      24.083702      24.086641      24.089741      24.193945      24.197727      24.092981      23.979483      23.976776      23.857389      23.859577      23.737169      23.618208      23.616978      23.735479      23.733828      23.615753      23.614548      23.732227      23.853247      23.855276      23.974176      23.971697      23.969355      23.967159      23.849503      23.851318      23.730694      23.613379      23.612255      23.729239      23.727875      23.611195      23.610205      23.726614      23.846258      23.847811      23.965124      23.963261      24.073772      24.075956      24.177996      24.175489      24.267208      24.348476      24.351635      24.270041      24.273153      24.355106      24.358883      24.276533      24.183729      24.080931      24.078346      24.180746      24.169519      24.068560      24.067295      24.168074      24.258848      24.339178      24.340986      24.260477      24.262417      24.343143      24.345644      24.264664      24.173235      24.171242      24.070066      24.071806      23.961578      23.960085      23.843597      23.844849      23.725468      23.609297      23.608482      23.724442      23.723549      23.607767      23.607159      23.722794      23.841591      23.842508      23.958792      23.957705      23.956825      23.956163      23.840292      23.840851      23.722181      23.606667      23.606293      23.721720      23.721409      23.606041      23.605915      23.721252      23.839727      23.839916      23.955721      23.955498      24.064734      24.165152      24.165445      24.064993      24.066275      24.065506      24.166033      24.166910      24.257540      24.256554      24.336628      24.337723      24.335896      24.255894      24.255564      24.335529      24.405096      24.405499      24.465052      24.4646