<VTKFile type="UnstructuredGrid" version="1.0" byte_order="LittleEndian" header_type="UInt64">
  <UnstructuredGrid>
    <Piece NumberOfPoints="40602" NumberOfCells="20000">
      <CellData Scalars="Scalars_">
        <DataArray type="Float32" Name="Scalars_" format="ascii">
     -15.371613      -15.384748      -15.492239      -15.479303      -15.698683      -16.040071      -16.052408      -15.711313      -15.736440      -16.076986      -16.113636      -15.773823      -15.556088      -15.517937      -15.410821      -15.449477      -15.500270      -15.562717      -15.668152      -15.606304      -15.823156      -16.162128      -16.222204      -15.884088      -15.956241      -16.293579      -16.375948      -16.039230      -15.824947      -15.741184      -15.636329      -15.720614      -15.815092      -15.919283      -16.022863      -15.918989      -16.132662      -16.469007      -16.572441      -16.236149      -16.349297      -16.685936      -16.809174      -16.471720      -16.258337      -16.136124      -16.032719      -16.154936      -16.285484      -16.423916      -16.527903      -16.389072      -16.603035      -16.941835      -17.083601      -16.742857      -16.890804      -17.234142      -17.393129      -17.046494      -16.828169      -16.674408      -16.569792      -16.722673      -16.882130      -17.047728      -17.155788      -16.988768      -17.209538      -17.560219      -17.735060      -17.379543      -17.556112      -17.917288      -18.106520      -17.738838      -17.507397      -17.328806      -17.219038      -17.395622      -17.577040      -17.762846      -17.879551      -17.691126      -17.927298      -18.302359      -18.504383      -18.121061      -18.319675      -18.712149      -18.925192      -18.522676      -18.268656      -18.072216      -17.952579      -18.145777      -18.341957      -18.540627      -18.670914      -18.468388      -18.729574      -19.143013      -19.365093      -18.939865      -19.153017      -19.590879      -19.819788      -19.368481      -19.082272      -18.875719      -18.741276      -18.943386      -19.146420      -19.349819      -19.498405      -19.290024      -19.585682      -20.051210      -20.284502      -19.804022      -20.022884      -20.518995      -20.753994      -20.241632      -19.914711      -19.706835      -19.553024      -19.755449      -21.712996      -22.350548      -22.562471      -21.906351      -21.482655      -21.274662      -21.100172      -21.301836      -21.115416      -20.920073      -20.734959      -20.924021      -21.310196      -21.514050      -22.133038      -21.910713      -21.684345      -21.102127      -20.890543      -21.454716      -21.222603      -20.988777      -20.459606      -20.676138      -20.326344      -20.121422      -19.956507      -20.155596      -20.352108      -20.528845      -20.728283      -20.545433      -22.966583      -22.768061      -22.093443      -22.273621      -21.825054      -21.657259      -21.442959      -21.604498      -21.905127      -21.758728      -21.985464      -22.137938      -22.610735      -22.446253      -23.157328      -23.339617      -23.676281      -23.512806      -22.766491      -22.912977      -22.416996      -22.281948      -22.043192      -22.172453      -22.402811      -22.292463      -22.542616      -22.658373      -23.176130      -23.049683      -23.829468      -23.971828      -23.741879      -24.628506      -24.669708      -23.773613      -23.188866      -22.899448      -22.877142      -23.163399      -23.125879      -22.843122      -22.797516      -23.076454      -23.640440      -23.697430      -24.573614      -24.505251      -24.423677      -23.571121      -23.489721      -24.329189      -24.222128      -24.102867      -23.291882      -23.396534      -22.858736      -22.763868      -22.503119      -22.593035      -22.672251      -22.942646      -23.015305      -22.740492      -24.710373      -24.697044      -23.792500      -23.798441      -23.203264      -23.202175      -22.909950      -22.908594      -22.870285      -22.895365      -23.192101      -23.168694      -23.771309      -23.791384      -24.709595      -24.694654      -24.622257      -24.665535      -23.738243      -23.692245      -23.085392      -23.133097      -22.833416      -22.784859      -22.653257      -22.724747      -23.025707      -22.954206      -23.561909      -23.633419      -24.564892      -24.493542      -65.629982      -70.057678      -70.097443      -65.715302      -60.531170      -54.906986      -54.786537      -60.418427      -60.266304      -54.627373      -54.430401      -60.075523      -65.345589      -65.506561      -69.981781      -69.870308      -73.482956      -73.530792      -76.164574      -76.192612      -78.094780      -79.301971      -79.072739      -77.976166      -77.815742      -78.790939      -78.451759      -77.610649      -75.998451      -76.100380      -73.544090      -73.521996      -73.463669      -73.368286      -75.674911      -75.857162      -77.357880      -78.049995      -77.580536      -77.054268      -76.696564      -77.033089      -76.442024      -76.282097      -75.181557      -75.450157      -73.235146      -73.063683      -69.885017      -65.665161      -65.737366      -69.994736      -70.066460      -70.100540      -65.761971      -65.769493      -60.635765      -60.603832      -54.987862      -55.028370      -55.027763      -60.626335      -60.574959      -54.985352      -49.374462      -44.144592      -44.190239      -49.416077      -49.418316      -49.381878      -44.175571      -44.200363      -39.594936      -39.584614      -35.673740      -35.669907      -35.639214      -39.574478      -39.522758      -35.581322      -32.300793      -32.363884      -29.687904      -29.620991      -27.470512      -25.780989      -25.851736      -27.539892      -27.591404      -25.906776      -25.946053      -27.625057      -29.760368      -32.419506      -32.403385      -29.734329      -29.751930      -32.382725      -32.412514      -29.766169      -27.640907      -25.969547      -25.977297      -27.639061      -27.619667      -25.969368      -25.945883      -27.582916      -29.664377      -29.717901      -32.330517      -32.256306      -35.429451      -39.247566      -39.374828      -35.528427      -35.651119      -35.602509      -39.473911      -39.544064      -44.116554      -44.024071      -49.196098      -49.307529      -49.048492      -43.898945      -43.742073      -48.865677      -48.648682      -43.554405      -43.336956      -48.398609      -48.116615      -47.803917      -42.817043      -43.090794      -38.704922      -38.473419      -34.797817      -34.989647      -35.159367      -38.911736      -39.092918      -35.306206      -32.160568      -32.043808      -29.500242      -29.591696      -27.529049      -25.906994      -25.852905      -27.458342      -27.371120      -25.783855      -25.700127      -27.267748      -29.262766      -31.749523      -31.906595      -29.390442      -28.955875      -31.378431      -31.573240      -29.117725      -27.148632      -25.602043      -25.489967      -27.014217      -26.865000      -25.364305      -25.225504      -26.701508      -28.584171      -28.777811      -31.165821      -30.936180      -33.826080      -37.320965      -37.640907      -34.097908      -34.584682      -34.351082      -37.940361      -38.218224      -42.516869      -42.191490      -47.091591      -47.461796      -46.694687      -41.842163      -41.470192      -46.272530      -51.622997      -57.259941      -57.728077      -52.082211      -52.914467      -52.513180      -58.165222      -58.570171      -63.997746      -63.623943      -68.483871      -68.797874      -68.137833      -63.217022      -62.777775      -67.760239      -71.945503      -72.244240      -75.488716      -75.272148      -77.813438      -79.695198      -79.758575      -77.951294      -78.062729      -79.794540      -79.801102      -78.146523      -75.839218      -75.677979      -72.513565      -72.753021      -72.962120      -73.140297      -76.074265      -75.971619      -78.201271      -79.775986      -79.716614      -78.225372      -78.217041      -79.620064      -79.483070      -78.174255      -76.185989      -76.146111      -73.286949      -73.401413      -69.723801      -69.542801      -64.913254      -65.147629      -59.846851      -54.196587      -53.926964      -59.581097      -59.279118      -53.622620      -53.284714      -58.941818      -64.337677      -69.079346      -69.327812      -64.643066      -59.519417      -64.865097      -65.419014      -60.130707      -54.502789      -48.958469      -48.363831      -53.879128      -53.235531      -47.752880      -47.127552      -52.573971      -58.226658      -58.884171      -64.284744      -63.679104      -68.548187      -69.066315      -73.035622      -72.618340      -75.861847      -78.368050      -78.604263      -76.182465      -76.482185      -78.821945      -79.020439      -76.760567      -73.798882      -73.429276      -69.558884      -70.025215      -70.464752      -70.876991      -74.464378      -74.144051      -77.017128      -79.199028      -79.356842      -77.251343      -77.462608      -79.492928      -79.606148      -77.650238      -75.028877      -74.759460      -71.261475      -71.617775      -67.351608      -62.307079      -61.805904      -66.912506      -66.443558      -65.945465      -60.716480      -61.275314      -55.682922      -55.104649      -49.534916      -50.091331      -50.625946      -56.235931      -56.762096      -51.137051      -45.826603      -41.076908      -40.663681      -45.358456      -44.869656      -44.361832      -39.783089      -40.231930      -36.249836      -35.859760      -32.572166      -32.908539      -33.230370      -36.624229      -36.981678      -33.536564      -30.690317      -30.429090      -28.152946      -28.375641      -26.524319      -25.074049      -24.910473      -26.334057      -26.131384      -24.735350      -24.549294      -25.917015      -27.668222      -29.864195      -30.153400      -27.916866      -27.136776      -29.249289      -29.562477      -27.407887      -25.691706      -24.352962      -24.147055      -25.456261      -25.211519      -23.932308      -23.709496      -24.958372      -26.566139      -26.855858      -28.925730      -28.592941      -31.104797      -34.169262      -34.608639      -31.487452      -32.222397      -31.860411      -35.037796      -35.455299      -39.318638      -38.840099      -43.295792      -43.836643      -42.741009      -38.349026      -37.847015      -42.174076      -41.596802      -37.335705      -36.816776      -41.011040      -40.418671      -39.821602      -35.762905      -36.291927      -32.804779      -32.339661      -29.504354      -29.912146      -30.315762      -33.265800      -33.721146      -30.713778      -28.252110      -27.904455      -25.964531      -26.268671      -24.697735      -23.479424      -23.242924      -24.430559      -24.157818      -23.000849      -22.754070      -23.880503      -25.340694      -27.193707      -27.551229      -25.654831      -24.703659      -26.470901      -26.833168      -25.023258      -23.599613      -22.503468      -22.249920      -23.316151      -23.031111      -21.994305      -21.737494      -22.745474      -24.062469      -24.383026      -26.108177      -25.746250      -27.860128      -30.469990      -30.935623      -28.270296      -29.093826      -28.681995      -31.403492      -31.872034      -35.231453      -34.699329      -38.621094      -39.221764      -38.021523      -34.168285      -33.640045      -37.424961      -41.853256      -46.894642      -47.620789      -42.519253      -43.856163      -43.187599      -48.347012      -49.070923      -54.673698      -53.925419      -59.598537      -60.322880      -58.861408      -53.170177      -52.410522      -58.113888      -63.603115      -64.286484      -69.084488      -68.502075      -72.600845      -75.875221      -76.240616      -73.070847      -73.524406      -76.591751      -76.928017      -73.960724      -70.196205      -69.649605      -64.954483      -65.605263      -66.237144      -66.848633      -71.229675      -70.723206      -74.379097      -77.248878      -77.553802      -74.778915      -75.159630      -77.842300      -78.113884      -75.520760      -72.177887      -71.714798      -67.438393      -68.005249      -63.049484      -62.397346      -56.852295      -57.548714      -51.896488      -46.489834      -45.841755      -51.205219      -50.502354      -45.185375      -44.522804      -49.790150      -55.412525      -61.032173      -61.724316      -56.139500      -23.686598      -9.710947      -10.401937      -35.768497      -69.631989      -80.046234      -79.668808      -67.389763      -64.934708      -79.226021      -78.750168      -62.575981      -5.446865      -12.350013      -8.638911      -7.479844      -6.448626      -2.113868      -0.783771      -5.631430      -5.041448      -4.660986      -0.562866      -0.447817      -57.404682      -56.344288      -77.113945      -77.440582      -77.832527      -58.783566      -60.505741      -78.276031      -83.303841      -84.731773      -84.769394      -83.250244      -83.193588      -83.140419      -84.809990      -84.794258      -85.186974      -85.211441      -85.214249      -85.198265      -85.171898      -85.151558      -85.102592      -85.133064      -85.079285      -85.007622      -84.951019      -85.036964      -84.677116      -83.346367      -83.368637      -84.600433      -84.496017      -83.360680      -83.312286      -84.357391      -84.700272      -84.796082      -84.914581      -84.840462      -84.703987      -84.860390      -84.769432      -84.642441      -84.402466      -84.021011      -84.017715      -84.432922      -84.446945      -83.999710      -83.968750      -84.446754      -84.773422      -84.746735      -84.929520      -84.980194      -85.015259      -84.786377      -84.787552      -85.037125      -85.047821      -85.049057      -84.760971      -84.778618      -84.378189      -84.337242      -83.742340      -83.812073      -83.873726      -84.410896      -84.434204      -83.926323      -83.217262      -82.248566      -82.117035      -83.129189      -83.032005      -82.926552      -81.825821      -81.975883      -80.563957      -80.357735      -78.416756      -78.693901      -78.959106      -80.760071      -80.945450      -79.211800      -79.451431      -79.677429      -81.281441      -81.119469      -82.369713      -83.295311      -83.362289      -82.479622      -82.577347      -83.416992      -83.458054      -82.661827      -81.566185      -80.086189      -79.889229      -81.430618      -82.750618      -83.190376      -83.036499      -82.664230      -82.015701      -81.024940      -80.980339      -82.036713      -82.031456      -80.912018      -80.821716      -82.002419      -82.835106      -83.392738      -83.307594      -82.806435      -82.822472      -83.482063      -83.449753      -82.839600      -81.951744      -80.710922      -80.580925      -81.881287      -81.792641      -80.432846      -80.267647      -81.687210      -82.731812      -83.483879      -83.492599      -82.785904      -84.505539      -84.652695      -84.558876      -84.449493      -84.281487      -84.353004      -84.007553      -83.974945      -83.840614      -83.920387      -84.184364      -84.057465      -84.134842      -84.309868      -84.322578      -84.097542      -83.491310      -83.823212      -83.918427      -83.653709      -83.694221      -83.895958      -83.731796      -83.589508      -83.183144      -83.408607      -83.445770      -83.143120      -82.946342      -83.332733      -83.092293      -82.615250      -81.681847      -80.853867      -80.023895      -80.911972      -81.602028      -82.165123      -82.739296      -82.277031      -82.844292      -83.221420      -83.624329      -83.318718      -82.859756      -82.071976      -81.530319      -82.325447      -83.658241      -82.817680      -82.495827      -83.299637      -83.713295      -83.959213      -84.235832      -84.039368      -84.306900      -84.462723      -84.647316      -84.524643      -84.177238      -83.213127      -83.052292      -83.947289      -11.038121      -10.682134      -44.838730      -51.106155      -73.024940      -71.498123      -80.338264      -80.533768      -80.582520      -80.621017      -74.296989      -75.349808      -60.314224      -55.927422      -12.807011      -18.976606      -47.146603      -33.084755      -64.520554      -67.974014      -76.615959      -76.147438      -80.395500      -80.036369      -78.721657      -79.484589      -76.713570      -76.459068      -71.816223      -70.358444      -56.429729      -62.356136      -73.158958      -72.537529      -72.684227      -73.112160      -73.374771      -73.572136      -73.791397      -73.526672      -73.720634      -74.079506      -74.464027      -73.970589      -73.228271      -73.200867      -72.292091      -71.890770      -71.245972      -73.224449      -73.160477      -70.225182      -68.630165      -66.162666      -72.610985      -72.985878      -75.318031      -75.958084      -77.786629      -76.754524      -75.732315      -74.729897      -74.296799      -74.989143      -75.664848      -76.600845      -77.768509      -76.738426      -77.900162      -79.019310      -79.996330      -78.925529      -79.857231      -80.802078      -81.484138      -80.679291      -79.730927      -78.776367      -77.624527      -78.659500      -77.526337      -76.407150      -75.495773      -76.478943      -75.572868      -74.943962      -74.431610      -74.878838      -74.384064      -74.055023      -73.772217      -74.019653      -74.347458      -74.798981      -75.452400      -74.826721      -77.511452      -76.394432      -75.448524      -76.442924      -77.604897      -78.721222      -79.629997      -78.632751      -79.603371      -80.429115      -81.107887      -80.465393      -79.603424      -78.585678      -77.487930      -78.595032      -79.645142      -80.510742      -81.281273      -80.580528      -81.374939      -82.047615      -82.484024      -81.933655      -82.339455      -82.777649      -82.906258      -82.570068      -82.165489      -81.817116      -81.197487      -81.682091      -81.935814      -81.924202      -82.178955      -82.297859      -82.596794      -82.840675      -82.543320      -82.383308      -81.882973      -81.965561      -81.043854      -81.034767      -80.995049      -81.764145      -81.604706      -80.921677      -80.811180      -80.659622      -81.143257      -81.399651      -81.612152      -81.501442      -80.984184      -81.234886      -80.783371      -80.371979      -79.651115      -80.247284      -80.449440      -80.214890      -80.462540      -80.828995      -74.867432      -74.239044      -73.903801      -74.367920      -75.122169      -75.961487      -76.647469      -75.824364      -76.578751      -77.334106      -77.994522      -77.351448      -76.358170      -75.268723      -74.678360      -75.557899      -78.055359      -76.989044      -76.084595      -77.205406      -78.112320      -78.595634      -79.108658      -78.828773      -79.459457      -79.544586      -79.911011      -79.996124      -79.614899      -78.815475      -77.914513      -78.871559      -74.332817      -74.799896      -75.489510      -74.837578      -75.627617      -76.574219      -77.752609      -76.771675      -75.083565      -75.844002      -74.936958      -74.438095      -74.012543      -74.365219      -73.985886      -73.722855      -73.363289      -73.520554      -73.743935      -73.536461      -73.783157      -74.066284      -74.542664      -74.141747      -73.600365      -73.836746      -73.564156      -73.392647      -73.246834      -73.374458      -73.240005      -73.142670      -73.014923      -72.972435      -72.933746      -72.967026      -73.010017      -73.066650      -73.142380      -73.069855      -73.145515      -73.238190      -73.360123      -73.241638      -73.152229      -73.083168      -73.021286      -73.075447      -73.375229      -73.262207      -73.161835      -73.250031      -73.364380      -73.516312      -73.717995      -73.522087      -73.726273      -73.981110      -74.329208      -73.993309      -73.745552      -73.556740      -73.390862      -73.536423      -72.815376      -72.768997      -73.065834      -73.022797      -73.160225      -73.255035      -73.403419      -73.272552      -73.090378      -73.170433      -73.084900      -73.024933      -72.950806      -72.984329      -72.838326      -72.847305      -72.844788      -72.848228      -72.922119      -72.897888      -72.938911      -72.977104      -73.027374      -72.977654      -72.907059      -72.938293      -72.908379      -72.883934      -72.860771      -72.877617      -72.839211      -72.832832      -83.565399      -82.643852      -82.529091      -83.480965      -84.182487      -84.686096      -84.729240      -84.243607      -84.303925      -84.771523      -84.812569      -84.363022      -83.731628      -83.649109      -82.757980      -82.870918      -81.715408      -81.562973      -79.975220      -80.179123      -78.151222      -75.498322      -75.143234      -77.880554      -77.608047      -74.786163      -74.428543      -77.334785      -79.563728      -79.769814      -81.409248      -81.254921      -81.100685      -80.947266      -79.153114      -79.357849      -77.061913      -74.071869      -73.717735      -76.790642      -76.522240      -73.367805      -73.023811      -76.258026      -78.750961      -78.950485      -80.795403      -80.645874      -82.075218      -83.145477      -83.228065      -82.186729      -82.414261      -82.299950      -83.311829      -83.396286      -84.120941      -84.059372      -84.598503      -84.642403      -84.554695      -83.998161      -83.937683      -84.511292      -84.901535      -85.095146      -85.110123      -84.931007      -84.990173      -84.960625      -85.125046      -85.139809      -84.906540      -84.918030      -83.676987      -83.589043      -83.763321      -84.929268      -84.940086      -83.846931      -79.866615      -79.530846      -65.368881      -66.749817      -22.235893      -11.896193      -11.413069      -16.384192      -11.434540      -10.764000      -10.017343      -7.760666      -62.468285      -78.810654      -79.176559      -63.918869      -59.780560      -78.081230      -78.442169      -61.075333      -5.287871      -9.233850      -8.458216      -3.749058      -2.861205      -7.719763      -7.036138      -2.387358      -57.574818      -58.608932      -77.738144      -77.422844      -83.256256      -84.863235      -84.873085      -83.332405      -83.414749      -83.501007      -84.895035      -84.883789      -85.168388      -85.154297      -85.019402      -85.048065      -85.075874      -85.181931      -85.194748      -85.102547      -85.127739      -85.206635      -85.217308      -85.151077      -85.190369      -85.172127      -85.226418      -85.233505      -84.836319      -84.841042      -83.087616      -83.057892      -83.131752      -84.847069      -84.854500      -83.188629      -77.144661      -76.912231      -55.955650      -56.687572      -2.152687      -6.417620      -5.870479      -2.033684      -1.948006      -5.399626      -5.010381      -1.841821      -55.001751      -76.615685      -76.733505      -55.389339      -54.827766      -76.586884      -76.565079      -54.808708      -1.683613      -4.709922      -4.508368      -1.458985      -1.172199      -4.419790      -4.462850      -0.851144      -55.576138      -55.077309      -76.684837      -76.860741      -83.095825      -84.819565      -84.825371      -83.063454      -83.045685      -83.043739      -84.832588      -84.829254      -85.239075      -85.237976      -85.205223      -85.215973      -85.221771      -85.235863      -85.227142      -85.221603      -85.042259      -85.028641      -84.704170      -84.735817      -84.289070      -83.665390      -83.581985      -84.234550      -84.174454      -83.492836      -83.398567      -84.109467      -84.624832      -84.984924      -85.009239      -84.666924      -84.956436      -84.578575      -84.528740      -84.924423      -84.889450      -84.852020      -84.420486      -84.475883      -83.891205      -83.812492      -82.982109      -83.091019      -83.197098      -83.967285      -84.040215      -83.299797      -82.299530      -80.964172      -80.773933      -82.158577      -82.013832      -81.865906      -80.380707      -80.579216      -78.683067      -78.419044      -75.850113      -76.197372      -76.538956      -78.942406      -79.196251      -76.873825      -79.684418      -77.519676      -77.201027      -79.443825      -81.149277      -82.436104      -82.567703      -81.328613      -81.501556      -82.693733      -82.813560      -81.667503      -80.142006      -79.917358      -77.828995      -78.128242      -75.496231      -75.104393      -71.615295      -72.115311      -67.903763      -62.906410      -62.198559      -67.291100      -66.665810      -61.481895      -60.758911      -66.029785      -70.576622      -74.285614      -74.700546      -71.101959      -73.860641      -70.040749      -69.495949      -73.426788      -72.985321      -72.537643      -68.386749      -68.943985      -64.078552      -63.421539      -57.856853      -58.578403      -59.304447      -64.733887      -65.385078      -60.032200      -54.311382      -48.636684      -47.904621      -53.556892      -52.810772      -52.075661      -46.482300      -47.185760      -42.006611      -41.361454      -36.848194      -37.425690      -38.020153      -42.668900      -43.346550      -38.630131      -44.740189      -39.890156      -39.254032      -44.037655      -49.379623      -55.071533      -55.834602      -50.131008      -50.888336      -56.597836      -57.358494      -51.649040      -46.170940      -45.452026      -40.536686      -41.191719      -36.833282      -33.116299      -32.598686      -36.248310      -35.671795      -35.105419      -31.588085      -32.088783      -29.101507      -28.659519      -26.261414      -26.652275      -27.049824      -29.551487      -30.008120      -27.452864      -25.386339      -25.029625      -23.425884      -23.743073      -22.460201      -21.480333      -21.223656      -22.176228      -21.894449      -20.968260      -20.714922      -21.615730      -22.802132      -23.111917      -24.677237      -24.330252      -23.989685      -23.656487      -22.198708      -22.497442      -21.340889      -20.464375      -20.217323      -21.070700      -20.805889      -19.974426      -19.736311      -20.547131      -21.622236      -21.906725      -23.331537      -23.015648      -24.786234      -25.139849      -27.393595      -26.995205      -29.703915      -32.971348      -33.482430      -30.154772      -30.619829      -34.009319      -34.550770      -31.098000      -28.226774      -25.878366      -25.504189      -27.804443      -25.883024      -23.797285      -23.493671      -25.542202      -28.060205      -31.105366      -31.543396      -28.445686      -28.848572      -32.000912      -32.477180      -29.268229      -26.610147      -26.239197      -24.114286      -24.444141      -22.709551      -22.413906      -21.078371      -21.345913      -20.295050      -19.503559      -19.276714      -20.050224      -19.813177      -19.056288      -18.842745      -19.584383      -20.571758      -20.820158      -22.129293      -21.856215      -21.595100      -21.346312      -20.106049      -20.333599      -19.364271      -18.636526      -18.438030      -19.153229      -18.951595      -18.247633      -18.065681      -18.759680      -19.683983      -19.889420      -21.110138      -20.886814      -22.420759      -24.340481      -24.616093      -22.667185      -23.203888      -22.928299      -24.908403      -25.217203      -27.692646      -27.343426      -30.290075      -30.687429      -29.913689      -27.012863      -26.701183      -29.558554      -32.968334      -33.374153      -37.442947      -36.980907      -41.624256      -46.867970      -47.435081      -42.143307      -42.689865      -48.029518      -48.649811      -43.262974      -38.444405      -34.256535      -33.803688      -37.930984      -40.735058      -36.288986      -35.749245      -40.128902      -39.544319      -35.230015      -34.732189      -38.982475      -49.294312      -43.861523      -44.484241      -49.961208      -50.648518      -45.129704      -45.796310      -51.354099      -62.765404      -57.142582      -56.438351      -62.112785      -61.466366      -55.746857      -55.070713      -60.828838      -70.717018      -66.147652      -66.704422      -71.173149      -71.629860      -67.264755      -67.826286      -72.085274      -65.054565      -69.814415      -70.263420      -65.596870      -60.202900      -54.412430      -53.774387      -59.591202      -58.996338      -53.158817      -52.567799      -58.420811      -64.005379      -64.523232      -69.372108      -68.938667      -68.516304      -68.107216      -63.019997      -63.503494      -57.867016      -52.003254      -51.466930      -57.337227      -56.833572      -50.960407      -50.485107      -56.358036      -62.117516      -67.337631      -67.713600      -62.557247      -66.981415      -61.702957      -61.315598      -66.646988      -66.336273      -66.051086      -60.629860      -60.957317      -55.117588      -54.771172      -48.919136      -49.258404      -49.633068      -55.498459      -55.912445      -50.042294      -44.482704      -39.465603      -39.124382      -44.101757      -43.754284      -43.440697      -38.534481      -38.813965      -34.503059      -34.258801      -30.594395      -30.806200      -31.042130      -34.774807      -35.074078      -31.302298      -35.755085      -31.895668      -31.586792      -35.400856      -39.837433      -44.896618      -45.342896      -40.239613      -40.671791      -45.820805      -46.329494      -41.133526      -36.545349      -36.136646      -32.228928      -32.586525      -29.224861      -26.408535      -26.134983      -28.912724   