<VTKFile type="UnstructuredGrid" version="1.0" byte_order="LittleEndian" header_type="UInt64">
  <UnstructuredGrid>
    <Piece NumberOfPoints="40602" NumberOfCells="20000">
      <CellData Scalars="Scalars_">
        <DataArray type="Float32" Name="Scalars_" format="ascii">
     -35.880566      -35.874268      -35.920811      -35.926907      -36.016739      -36.145515      -36.140457      -36.011055      -35.999676      -36.130341      -36.115166      -35.982605      -35.890305      -35.908611      -35.861664      -35.842747      -35.817516      -35.785988      -35.835384      -35.865887      -35.959843      -36.094933      -36.069683      -35.931416      -35.897369      -36.039463      -36.004360      -35.857780      -35.756313      -35.798836      -35.748203      -35.704227      -35.654156      -35.598103      -35.653748      -35.707909      -35.812748      -35.964489      -35.919987      -35.762402      -35.706902      -35.871021      -35.817795      -35.646431      -35.528770      -35.593975      -35.536221      -35.468670      -35.395649      -35.317375      -35.382862      -35.458324      -35.581192      -35.760517      -35.699444      -35.511414      -35.437351      -35.634830      -35.566971      -35.359276      -35.217880      -35.302628      -35.234089      -35.146038      -35.053509      -34.956791      -35.035988      -35.128899      -35.277477      -35.496166      -35.422733      -35.192261      -35.103947      -35.347008      -35.269337      -35.012863      -34.839615      -34.939449      -34.856190      -34.752026      -34.644630      -34.534340      -34.631386      -34.736813      -34.919357      -35.190071      -35.109573      -34.823776      -34.726475      -35.028206      -34.946327      -34.627804      -34.414059      -34.523685      -34.421501      -34.306461      -34.189575      -34.071182      -34.190441      -34.302860      -34.528126      -34.864307      -34.782505      -34.427792      -34.327148      -34.701263      -34.620926      -34.226540      -33.963314      -34.077145      -33.951637      -33.831276      -33.710430      -33.589424      -33.735355      -33.849277      -34.126289      -34.541817      -34.464252      -34.026718      -33.928123      -34.388527      -34.314903      -33.830795      -33.509071      -33.621857      -33.468567      -33.348148      -33.203857      -33.875847      -33.825569      -33.123966      -32.660488      -32.429585      -32.538300      -32.759674      -32.861092      -32.649044      -32.761707      -32.964642      -33.371464      -33.286377      -33.929379      -33.986130      -34.046047      -33.459011      -33.548897      -34.109032      -34.174950      -34.243637      -33.734989      -33.640953      -33.286709      -33.397270      -33.228451      -33.109734      -32.992233      -33.177620      -33.070202      -32.876160      -33.734665      -33.778526      -33.046741      -32.972183      -32.469025      -32.563595      -32.322979      -32.218533      -32.016140      -32.116257      -32.376778      -32.286819      -32.830864      -32.900246      -33.693890      -33.656075      -33.588577      -33.621044      -32.763924      -32.699284      -32.113464      -32.199081      -31.918135      -31.822161      -31.635826      -31.728106      -32.029835      -31.948021      -32.576138      -32.636761      -33.558430      -33.530300      -32.179890      -33.357708      -33.330948      -32.122837      -31.328939      -30.934822      -31.021463      -31.405788      -31.482084      -31.107738      -31.193998      -31.558205      -32.291599      -32.235992      -33.382912      -33.407112      -33.430820      -32.347134      -32.402992      -33.454544      -33.478745      -33.503860      -32.517162      -32.459553      -31.789022      -31.867826      -31.545153      -31.455877      -31.367771      -31.711348      -31.634512      -31.280573      -33.270496      -33.302071      -32.064381      -32.004036      -31.171968      -31.251137      -30.847450      -30.758968      -30.577101      -30.668985      -31.091013      -31.007837      -31.875738      -31.941322      -33.235638      -33.196899      -33.105392      -33.153683      -31.806786      -31.733969      -30.833094      -30.922010      -30.482914      -30.386019      -30.182501      -30.286013      -30.740656      -30.644268      -31.574762      -31.656790      -33.051437      -32.991241      -73.811333      -76.343407      -76.513962      -74.058929      -70.860176      -66.914223      -66.556976      -70.548210      -70.203705      -66.167679      -65.746727      -69.826569      -73.219505      -73.531616      -76.140617      -75.905495      -77.938324      -78.088196      -79.450722      -79.395653      -80.349899      -80.857147      -80.674339      -80.296104      -80.195358      -80.430740      -80.120407      -80.044266      -79.444153      -79.467430      -78.204185      -78.285797      -78.332443      -78.343521      -79.270370      -79.379112      -79.839088      -79.736732      -79.272865      -79.575722      -79.249733      -78.715981      -78.103020      -78.857056      -78.913872      -79.115952      -78.318443      -78.256721      -76.875549      -74.734314      -74.612015      -76.833000      -76.758667      -76.652359      -74.274696      -74.458939      -71.387131      -71.139748      -67.239136      -67.531525      -67.791245      -71.602547      -71.786308      -68.018250      -63.518661      -58.532322      -58.292274      -63.271366      -62.991554      -62.679779      -57.722080      -58.021851      -52.988407      -52.729122      -48.039078      -48.240562      -48.421173      -53.222347      -53.429649      -48.579590      -44.234230      -44.129990      -40.454491      -40.506962      -37.413994      -34.923855      -34.954437      -37.406948      -37.389168      -34.976837      -34.991756      -37.361504      -40.308727      -43.869244      -44.007923      -40.388069      -40.115574      -43.547085      -43.715199      -40.217529      -37.324841      -34.999908      -35.002029      -37.280071      -37.228107      -34.998844      -34.991093      -37.169853      -39.883831      -40.003971      -43.366222      -43.173950      -47.052933      -51.467075      -51.813278      -47.323524      -47.818108      -47.579094      -52.140072      -52.445858      -57.394085      -57.039074      -61.963055      -62.336700      -61.559700      -56.658371      -56.253395      -61.127605      -60.667862      -55.825665      -55.376801      -60.181698      -59.670479      -59.135704      -54.422630      -54.908520      -50.328823      -49.922039      -45.851807      -46.166718      -46.472939      -50.723114      -51.103119      -46.768875      -42.971630      -42.760612      -39.622440      -39.756283      -37.106216      -34.979500      -34.964787      -37.038094      -36.966373      -34.947651      -34.928780      -36.891914      -39.340263      -42.317890      -42.542252      -39.483406      -39.045856      -41.856396      -42.088840      -39.194073      -36.815552      -34.908829      -34.888432      -36.738091      -36.660309      -34.868183      -34.848652      -36.582932      -38.747272      -38.896610      -41.621803      -41.386272      -44.536827      -48.206497      -48.644981      -44.870785      -45.529804      -45.202282      -49.078281      -49.504581      -53.921017      -53.405632      -58.002224      -58.579025      -57.407219      -52.878494      -52.341663      -56.796051      -61.327770      -65.652428      -66.282829      -61.972191      -63.188869      -62.593102      -66.883545      -67.453682      -71.165070      -70.654282      -73.806618      -74.239502      -73.339867      -70.110130      -69.532784      -72.839012      -75.546997      -75.961983      -78.029045      -77.700768      -79.373352      -80.640923      -80.803101      -79.617401      -79.828667      -80.930969      -81.022926      -80.006470      -78.587303      -78.324562      -76.343430      -76.691628      -77.006813      -77.289093      -79.013451      -78.817055      -80.149872      -81.076950      -81.090599      -80.257645      -80.328232      -81.060928      -80.984459      -80.359734      -79.303642      -79.175911      -77.538521      -77.754990      -75.637939      -75.337776      -72.497124      -72.874756      -69.416786      -65.294601      -64.811920      -68.974403      -68.499565      -64.299438      -63.758064      -67.992531      -71.642426      -74.638809      -75.004814      -72.086411      -65.404373      -69.114426      -69.819901      -66.166626      -62.101994      -57.822987      -57.081894      -61.325001      -60.531105      -56.333523      -55.580669      -59.723080      -63.803642      -64.615997      -68.376450      -67.607132      -70.982285      -71.675613      -74.463959      -73.862755      -76.252258      -78.196136      -78.611588      -76.758286      -77.230362      -78.995346      -79.347748      -77.668983      -75.560272      -75.029694      -72.333923      -72.956978      -73.544746      -74.097351      -76.517670      -76.056122      -78.074608      -79.669022      -79.959221      -78.447639      -78.788368      -80.218216      -80.445656      -79.096939      -77.339622      -76.945366      -74.615044      -75.098145      -72.303848      -68.922577      -68.280014      -71.734276      -71.130287      -70.492050      -66.900948      -67.605820      -63.595299      -62.859535      -58.554077      -59.272530      -59.975842      -64.307213      -64.993446      -60.661648      -56.170879      -51.797218      -51.247265      -55.533951      -54.887592      -54.234184      -50.139149      -50.693886      -46.877777      -46.436150      -43.204788      -43.534538      -43.867325      -47.321159      -47.764637      -44.201870      -41.150955      -40.916958      -38.451866      -38.598743      -36.506653      -34.830364      -34.813805      -36.432114      -36.359909      -34.799419      -34.787609      -36.290581      -38.166172      -40.456993      -40.685310      -38.307434      -37.895798      -40.013863      -40.232899      -38.028759      -36.224625      -34.778732      -34.773094      -36.162483      -36.104534      -34.770958      -34.772549      -36.051109      -37.645348      -37.767834      -39.800640      -39.593906      -41.938950      -44.717506      -45.137165      -42.245365      -42.879276      -42.559124      -45.564384      -45.997852      -49.585075      -49.033634      -52.915890      -53.576141      -52.255829      -48.486713      -47.946117      -51.598324      -50.945663      -47.413540      -46.890572      -50.300053      -49.663589      -49.038231      -45.879185      -46.378677      -43.515476      -43.137100      -40.802460      -41.071865      -41.351482      -43.905613      -44.306622      -41.640736      -39.394268      -39.202244      -37.418404      -37.528755      -36.002491      -34.778030      -34.787529      -35.958893      -35.920486      -34.801128      -34.818859      -35.887390      -37.217518      -38.842758      -39.018284      -37.314583      -37.044231      -38.518112      -38.675961      -37.127365      -35.859665      -34.840714      -34.866646      -35.837322      -35.820339      -34.896564      -34.930344      -35.808628      -36.899124      -36.968155      -38.369362      -38.229786      -39.835281      -41.754776      -42.079597      -40.059902      -40.543751      -40.296131      -42.418564      -42.771244      -45.393295      -44.922062      -47.827957      -48.425800      -47.246189      -44.466400      -44.027077      -46.681816      -49.725723      -53.125179      -53.932884      -50.417461      -51.847115      -51.125294      -54.751770      -55.578793      -59.477749      -58.582481      -62.440754      -63.354492      -61.513592      -57.685616      -56.790932      -60.576870      -64.303391      -65.230461      -68.671844      -67.800209      -70.945076      -73.678436      -74.362274      -71.730194      -72.481552      -75.011879      -75.627098      -73.198257      -70.324524      -69.513954      -66.136452      -67.018211      -67.872986      -68.698463      -71.845154      -71.101974      -73.879753      -76.208046      -76.754990      -74.525803      -75.136414      -77.268333      -77.748543      -75.711777      -73.225868      -72.553268      -69.492767      -70.254410      -66.807930      -65.980675      -62.117054      -62.969746      -58.903881      -54.826157      -54.072803      -58.076611      -57.244488      -53.323399      -52.580635      -56.410786      -60.367672      -64.251198      -65.127571      -61.248604      -84.358078      -84.214233      -83.856300      -84.044296      -84.205139      -84.333534      -84.561783      -84.475677      -84.694572      -84.744034      -84.887444      -84.869896      -84.821625      -84.614189      -84.508202      -84.748100      -84.942474      -84.988113      -85.120293      -85.098679      -85.223015      -85.320801      -85.303314      -85.223770      -85.198555      -85.259026      -85.181061      -85.140945      -85.081161      -85.116463      -85.008560      -84.998100      -84.949837      -84.855301      -84.884979      -85.007019      -85.043030      -85.060928      -84.888229      -84.895096      -84.685341      -84.650360      -84.332352      -84.399567      -84.450600      -84.703964      -84.704140      -84.483757      -84.497009      -84.487854      -84.638412      -84.683311      -84.802963      -84.867775      -84.756416      -84.724236      -84.614655      -84.610481      -84.423744      -84.468880      -84.460777      -84.389687      -84.453300      -84.565720      -83.984375      -84.264679      -84.243675      -84.008118      -83.665138      -83.193047      -83.069710      -83.593605      -83.498001      -82.922485      -82.752472      -83.379959      -83.864212      -83.935669      -84.259064      -84.229713      -84.179008      -83.771828      -83.659973      -84.108902      -84.020981      -83.916580      -83.382500      -83.529869      -82.903107      -82.706108      -81.859085      -82.113396      -82.347343      -83.081566      -83.240799      -82.560539      -81.700645      -80.624481      -80.279114      -81.425812      -81.128098      -80.807587      -79.511314      -79.908112      -78.407539      -77.923706      -75.994804      -76.575562      -77.124031      -78.862228      -79.288078      -77.640480      -78.125259      -78.578789      -80.054573      -79.685425      -80.944328      -81.952408      -82.180801      -81.238693      -81.507523      -82.385391      -82.565529      -81.750610      -80.709229      -79.393883      -79.001518      -80.395782      -82.665474      -83.024940      -82.945976      -82.664116      -82.178566      -81.454048      -81.304100      -82.104240      -81.995720      -81.121994      -80.908806      -81.854965      -82.557793      -83.057747      -83.060753      -82.629021      -82.320419      -82.949059      -83.019539      -82.454269      -81.683517      -80.665276      -80.391884      -81.482521      -81.252815      -80.088860      -79.756241      -80.994942      -81.967567      -82.720352      -82.848694      -82.157791      -84.107056      -84.192543      -84.004166      -83.969208      -83.727440      -83.710587      -83.291077      -83.362007      -83.413162      -83.403618      -83.712639      -83.662453      -83.789421      -83.899239      -83.982132      -83.811737      -83.304619      -83.588707      -83.633987      -83.426086      -83.437065      -83.572395      -83.387276      -83.321861      -83.051842      -83.212013      -83.250038      -83.003685      -82.819092      -83.157623      -82.949593      -82.512115      -81.744408      -81.179268      -80.273422      -80.966499      -81.575630      -82.094193      -82.637955      -82.233063      -82.778732      -83.085289      -83.449913      -83.228630      -82.934181      -82.574509      -81.939384      -82.394203      -83.745621      -83.539032      -83.102562      -83.380127      -83.596512      -83.743584      -83.976387      -83.894218      -84.131897      -84.156967      -84.292656      -84.318275      -84.280609      -84.188866      -83.897285      -84.042419      -82.901253      -83.423019      -83.662483      -83.200691      -83.470177      -83.873581      -84.050919      -83.704216      -82.771721      -83.282158      -82.982422      -82.395897      -81.980148      -82.645187      -82.275833      -81.529083      -79.584869      -80.640282      -81.187378      -80.245987      -80.857101      -81.693916      -82.157768      -81.422729      -79.503822      -80.546066      -79.862946      -78.713470      -77.913116      -79.132347      -78.385414      -77.122177      -73.514465      -73.406395      -73.270592      -73.353981      -73.459023      -73.592339      -73.824287      -73.651001      -73.903656      -74.131470      -74.545174      -74.240608      -74.001205      -73.724228      -73.582939      -73.814270      -74.120743      -74.372215      -74.879951      -74.533279      -75.102249      -75.918472      -76.675522      -75.598587      -76.285309      -77.487617      -78.331444      -77.104599      -75.939186      -75.340759      -74.698814      -75.116676      -75.696541      -76.598396      -77.778847      -76.804115      -78.016251      -79.198044      -80.039246      -78.952187      -79.847878      -80.787788      -81.438095      -80.651154      -79.711937      -78.765137      -77.609108      -78.642197      -77.507607      -76.386948      -75.475800      -76.460243      -75.562935      -74.958076      -74.435814      -74.865372      -74.369194      -74.053482      -73.767418      -74.004631      -74.328087      -74.778961      -75.431908      -74.806618      -77.518417      -76.380447      -75.433121      -76.444092      -77.646896      -78.839027      -79.752754      -78.683075      -79.655510      -80.544701      -81.204048      -80.509041      -79.614052      -78.596931      -77.476524      -78.585526      -79.633698      -80.511826      -81.262131      -80.559128      -81.333786      -81.978722      -82.399361      -81.885422      -82.295631      -82.689056      -82.834366      -82.551361      -82.193153      -81.811104      -81.221130      -81.748444      -82.078461      -82.194168      -82.392090      -82.392853      -82.636703      -82.818626      -82.621223      -82.532333      -82.214226      -82.216232      -81.570404      -81.651321      -81.694496      -82.168861      -82.075729      -81.697075      -81.655647      -81.566109      -81.724243      -81.929581      -81.931129      -81.683456      -81.196129      -81.594231      -81.173340      -80.602928      -79.888275      -80.656677      -81.105728      -81.222618      -81.423645      -81.452438      -75.096909      -74.344269      -74.008987      -74.583107      -75.586227      -76.917114      -77.657425      -76.344574      -77.155106      -78.385918      -79.074158      -77.975792      -76.665726      -75.392830      -74.789024      -75.821854      -78.439400      -77.171654      -76.236290      -77.555199      -78.772331      -79.688164      -80.198235      -79.510300      -80.146751      -80.617867      -80.956512      -80.674278      -80.030670      -79.044617      -78.124451      -79.278313      -74.318291      -74.784409      -75.486099      -74.832481      -75.648125      -76.605019      -77.856819      -76.857277      -75.137024      -75.910637      -74.952232      -74.451530      -74.008881      -74.360229      -73.973068      -73.712273      -73.358147      -73.512566      -73.742470      -73.537819      -73.798920      -74.080109      -74.590248      -74.187798      -73.651199      -73.884148      -73.583008      -73.415482      -73.255173      -73.379120      -73.237885      -73.143707      -73.009445      -72.968163      -72.930534      -72.963188      -73.006332      -73.064278      -73.137375      -73.064041      -73.137566      -73.230591      -73.349960      -73.231529      -73.143471      -73.077049      -73.016029      -73.068329      -73.363319      -73.254990      -73.155022      -73.239662      -73.352127      -73.503670      -73.703003      -73.507744      -73.709961      -73.964012      -74.310371      -73.975273      -73.731163      -73.550240      -73.383675      -73.523132      -73.083908      -73.165535      -73.230309      -73.134476      -73.198029      -73.311760      -73.415169      -73.278709      -73.090668      -73.172974      -73.109734      -73.040916      -73.001717      -73.059914      -73.020271      -72.970535      -72.901024      -72.931587      -72.956184      -72.920486      -72.944984      -72.987129      -73.026382      -72.976036      -72.905457      -72.936523      -72.911903      -72.885887      -72.870407      -72.892448      -72.877022      -72.858147      -79.460587      -77.812859      -77.347435      -79.084198      -80.516151      -81.686722      -81.924881      -80.817078      -81.109642      -82.156319      -82.380035      -81.392715      -80.180710      -79.826515      -78.265511      -78.703835      -76.919159      -76.383766      -74.144112      -74.786720      -72.279671      -69.398239      -68.542862      -71.526512      -70.755821      -67.674088      -66.796394      -69.971100      -72.806786      -73.483269      -75.831612      -75.264633      -74.685181      -74.095985      -71.419586      -72.117722      -69.176308      -65.914703      -65.034256      -68.375877      -67.574623      -64.160576      -63.299339      -66.777733      -70.012260      -70.716316      -73.500160      -72.901230      -75.399361      -77.507744      -77.908531      -75.894394      -76.871063      -76.385887      -78.306320      -78.698868      -80.208138      -79.894478      -81.194809      -81.442955      -80.943626      -79.576797      -79.256905      -80.690903      -81.856041      -82.794792      -82.948235      -82.053932      -82.445107      -82.250694      -83.100761      -83.251350      -83.893204      -83.778183      -84.311554      -84.397957      -84.223610      -83.661469      -83.543907      -84.134827      -84.594864      -84.660835      -84.996277      -84.948120      -85.215797      -85.416214      -85.440338      -85.250267      -85.283813      -85.463486      -85.485283      -85.316017      -85.089439      -84.789619      -84.725945      -85.043541      -85.175095      -84.910370      -84.851288      -85.133461      -85.346428      -85.505295      -85.523048      -85.374550      -85.399872      -85.538017      -85.549583      -85.421783      -85.248978      -85.213799      -84.966293      -85.018448      -84.714973      -84.320900      -84.220314      -84.641312      -84.563492      -84.482155      -84.005737      -84.115021      -83.542969      -83.399048      -82.636040      -82.822433      -83.003319      -83.682251      -83.816101      -83.177795      -83.345047      -83.943756      -84.064491      -83.504288      -83.795807      -83.654778      -84.177567      -84.282265      -84.662033      -84.587387      -84.904221      -84.954247      -84.847137      -84.505150      -84.416084      -84.783813      -85.066185      -85.108810      -85.306114      -85.279999      -85.439621      -85.557030      -85.559517      -85.452606      -85.459824      -85.556023      -85.545357      -85.460190      -85.340195      -85.175537      -85.145554      -85.326508      -85.342674      -85.210976      -85.197746      -85.346046      -85.452415      -85.526031      -85.496300      -85.434937      -85.405861      -85.454002      -85.396545      -85.362907      -85.301361      -85.328438      -85.213806      -85.204521      -85.063271      -84.866486      -84.831635      -85.052162      -85.029358      -84.996307      -84.728264      -84.785149      -84.463364      -84.377800      -83.926643      -84.046562      -84.154755      -84.538040      -84.600777      -84.250359      -83.796783      -83.662537      -83.039154      -83.218689      -82.491142      -81.584717      -81.290565      -82.258690      -82.009201      -80.976852      -80.643860      -81.743095      -82.635376      -83.353859      -83.514656      -82.844521      -83.180847      -82.412285      -82.175827      -82.996262      -82.800797      -82.595131      -81.665329      -81.926620      -80.849709      -80.522079      -79.126564      -79.532669      -79.921326      -81.162834      -81.460815      -80.291893      -78.865440      -77.137352      -76.585426      -78.410164      -77.933495      -77.436157      -75.408913      -76.008934      -73.721909      -73.012306      -70.236191      -71.053200      -71.846252      -74.406441      -75.064316      -72.612862      -76.295670      -74.059250      -73.351044      -75.694336      -77.664001      -79.298782      -79.709846      -78.164886      -78.639778      -80.098404      -80.464340      -79.088577      -77.410507      -76.867813      -74.736382      -75.381706      -72.960770      -72.210037      -69.279274      -70.127518      -66.901527      -63.358822      -62.400692      -65.978767      -65.035362      -61.433239      -60.460949      -64.075188      -67.500214      -70.614403      -71.427383      -68.402588      -69.773155      -66.575401      -65.631897      -68.906227      -68.016716      -67.108223      -63.706089      -64.673920      -61.138393      -60.156815      -56.616341      -57.561543      -58.520424      -62.121971      -63.102520      -59.488445      -55.895363      -52.476933      -51.668812      -54.988621      -54.100826      -53.235390      -50.128571      -50.885315      -47.996170      -47.361168      -44.953243      -45.466217      -46.004379      -48.658451      -49.346924      -46.567326      -50.796749      -47.765007      -47.154469      -50.060234      -53.307224      -56.817360      -57.750671      -54.156933      -55.023014      -58.691185      -59.634666      -55.902180      -52.331520      -51.554569      -48.397923      -49.051983      -46.135967      -43.604721      -43.199829      -45.609608      -45.103512      -44.618290      -42.443722      -42.812752      -40.867817      -40.601715      -39.054295      -39.231968      -39.421303      -41.148720      -41.444412      -39.622398      -38.099403      -37.978157      -36.781891      -36.837074      -35.802074      -34.967819      -35.008793      -35.800510      -35.803738      -35.053036      -35.100300      -35.811523      -36.691429      -36.733410      -37.865944      -37.762596      -37.667896      -37.581589      -36.625935      -36.655697      -35.823601      -35.150295      -35.202724      -35.839676      -35.859428      -35.257263      -35.313568      -35.882519      -36.583042      -36.601830      -37.503372      -37.432899      -38.456081      -38.589317      -39.891132      -39.682770      -41.148594      -42.892612      -43.291470      -41.445435      -41.760117      -43.712055      -44.154373      -42.092842      -40.350346      -38.888123      -38.733223      -40.113564      -39.138325      -38.116505      -38.021912      -38.982254      -40.132973      -41.510582      -41.824722      -40.361950      -40.607243      -42.159515      -42.515373      -40.869316      -39.488121      -39.306786      -38.220093      -38.333141      -37.369808      -37.313702      -36.559944      -36.569210      -35.908585      -35.371284      -35.430054      -35.937263      -35.968163      -35.489498      -35.549248      -36.000893      -36.553505      -36.554844      -37.264160      -37.220745      -37.183018      -37.150517      -36.560425      -36.555508      -36.035057      -35.608925      -35.668152      -36.070267      -36.106121      -35.726555      -35.783779      -36.142239      -36.577332      -36.567837      -37.122787      -37.099380      -37.723804      -38.471561      -38.583267      -37.787281      -37.935837      -37.857792      -38.705257      -38.838074      -39.919792      -39.721867      -40.942318      -41.216621      -40.687099      -39.538624      -39.369480      -40.450363      -41.752541      -42.067654      -43.722580      -43.318405      -45.191269      -47.409660      -48.015797      -45.693710      -46.229416      -48.658932      -49.338394      -46.798397      -44.616638      -42.768478      -42.406116      -44.155197      -46.754280      -44.465672      -44.003563      -46.176105      -45.627018      -43.566826      -43.155243      -45.107197      -50.053219      -47.400486      -48.035309      -50.802128      -51.583508      -48.702236      -49.400383      -52.395378      -59.182301      -55.689144      -54.784016      -58.219887      -57.274460      -53.904671      -53.054466      -56.350677      -63.373184      -59.838474      -60.794189      -64.312233      -65.251213      -61.760948      -62.733364      -66.184868      -57.981285      -61.516964      -62.439560      -58.899124      -55.452885      -52.236351      -51.452869      -54.585060      -53.750778      -50.706165      -49.997990      -52.953194      -56.229355      -57.089844      -60.610996      -59.727158      -58.870747      -58.046776      -54.617474      -55.403984      -52.195019      -49.329731      -48.702450      -51.478546      -50.805668      -48.116913      -47.573631      -50.177910      -53.173794      -56.514389      -57.259907      -53.873127      -55.814053      -52.521912      -51.919518      -55.162285      -54.562031      -54.015812      -50.869511      -51.368267      -48.575825      -48.137730      -45.826473      -46.199387      -46.614819      -49.062214      -49.596458      -47.072891      -44.941799      -43.168106      -42.858112      -44.560055      -44.214848      -43.905743      -42.328438      -42.578407      -41.239540      -41.042526      -39.997673      -40.148308      -40.317413      -41.460350      -41.705528      -40.505531      -42.271427      -40.941170      -40.713245      -41.975681      -43.508949      -45.360470      -45.816406      -43.881191      -44.285358      -46.309853      -46.840942      -44.721916      -42.942188      -42.593391      -41.189930      -41.460175      -40.231495      -39.2138