<VTKFile type="UnstructuredGrid" version="1.0" byte_order="LittleEndian" header_type="UInt64">
  <UnstructuredGrid>
    <Piece NumberOfPoints="40602" NumberOfCells="20000">
      <CellData Scalars="Scalars_">
        <DataArray type="Float32" Name="Scalars_" format="ascii">
     10.097836      10.088566      10.098964      10.108059      10.136800      10.195296      10.186536      10.127918      10.110553      10.169402      10.144567      10.085396      10.055557      10.081208      10.070498      10.044460      10.011446      9.972445      9.984286      10.022937      10.053292      10.112841      10.075051      10.015121      9.971735      10.032014      9.984507      9.923944      9.892417      9.940501      9.928382      9.880102      9.828378      9.773909      9.786362      9.840803      9.872510      9.933269      9.878990      9.818132      9.761453      9.822306      9.763789      9.703049      9.671483      9.729732      9.717327      9.659198      9.600023      9.540248      9.552110      9.612125      9.643435      9.703956      9.643262      9.583069      9.522349      9.582108      9.520842      9.461624      9.431623      9.491828      9.480261      9.420398      9.360950      9.302167      9.312578      9.371789      9.401194      9.459762      9.399125      9.341311      9.282193      9.339147      9.280006      9.224019      9.196836      9.254202      9.244255      9.187388      9.131706      9.077321      9.085673      9.140621      9.166935      9.221850      9.164796      9.111056      9.056473      9.108934      9.054333      9.003251      8.979898      9.032078      9.024316      8.972753      8.922672      8.874097      8.879936      8.929177      8.951433      9.001037      8.949075      8.901045      8.852097      8.898459      8.849189      8.804583      8.785914      8.832184      8.827032      8.781470      8.737393      8.694773      8.697740      8.741108      8.758488      8.801252      8.754630      8.713786      8.670447      8.709296      8.665222      8.628433      8.615171      8.655774      8.653573      8.613753      8.368095      8.389434      8.354401      8.335282      8.334070      8.339267      8.369722      8.365362      8.397674      8.401194      8.433720      8.431040      8.436836      8.401937      8.425515      8.462663      8.500897      8.472826      8.509942      8.540244      8.580727      8.622376      8.587706      8.548222      8.537880      8.575889      8.575269      8.538071      8.502112      8.501100      8.465501      8.467344      8.287413      8.320398      8.303473      8.272640      8.274413      8.303763      8.309793      8.281265      8.226946      8.253657      8.245993      8.218478      8.213829      8.242765      8.255429      8.224433      8.165352      8.194412      8.185815      8.158707      8.166099      8.191853      8.201109      8.176131      8.128701      8.151999      8.141205      8.117161      8.107162      8.132492      8.137239      8.110062      7.954144      7.945201      7.925208      7.935748      7.955132      7.972131      7.988790      7.972421      7.990564      8.006289      8.024621      8.009559      7.993542      7.973410      7.966078      7.987840      8.010489      8.014538      8.036397      8.034029      8.058466      8.083807      8.082705      8.059118      8.071601      8.093961      8.106235      8.084593      8.063776      8.050079      8.029398      8.043785      7.887866      7.906096      7.918223      7.901573      7.923130      7.938700      7.956312      7.941338      7.913915      7.927206      7.908421      7.894572      7.870891      7.885796      7.870513      7.854036      7.823688      7.838430      7.856854      7.843680      7.869434      7.881579      7.901461      7.889834      7.869018      7.879025      7.858128      7.847646      7.819877      7.831358      7.809802      7.796762      6.620731      5.282116      5.136494      6.522512      7.382498      7.866775      7.920740      7.452505      7.518982      7.972903      8.023961      7.582906      6.799277      6.712518      5.416580      5.541976      3.655187      3.468004      0.680943      0.961984      -2.743559      -7.988067      -8.847120      -3.181299      -3.682429      -9.869020      -11.070488      -4.268375      0.035547      0.374012      3.265373      3.044077      2.801167      2.534059      -0.760326      -0.340365      -4.962055      -12.458992      -14.033449      -5.785573      -6.757680      -15.787884      -17.685125      -7.891282      -1.765432      -1.232190      2.240607      1.919179      4.409808      6.044097      6.178012      4.615482      4.804570      4.977838      6.416623      6.302041      7.228626      7.308106      7.810400      7.751110      7.688526      7.143541      7.052549      7.622418      7.901011      7.999492      8.041842      7.952585      8.002133      8.049830      8.123647      8.083188      8.068394      8.103529      8.039684      8.009077      7.978716      8.033045      7.997416      7.948571      7.887349      7.912794      7.855659      7.834264      7.799978      7.788069      7.803263      7.817954      7.836726      7.819293      7.836164      7.856298      7.900569      7.965276      7.938765      7.877759      7.948386      8.020053      7.992357      7.924104      7.876680      7.853887      7.872468      7.897883      7.919924      7.891913      7.912233      7.942818      7.999323      7.973448      8.048425      8.077543      8.166167      8.244745      8.208968      8.133720      8.070598      8.101907      8.173645      8.138562      8.163402      8.202700      8.140853      8.095949      8.184974      8.241836      8.281146      8.228805      8.272884      8.320999      8.361782      8.317778      8.364064      8.412318      8.447716      8.403891      8.357242      8.397309      8.305263      8.268781      8.233542      8.318628      8.281216      8.199390      8.107488      8.138345      8.053690      8.026056      7.966586      7.933434      7.955523      7.991249      8.016830      7.978512      8.002409      8.043355      8.111860      8.203160      8.170205      8.082274      8.174242      8.272727      8.237305      8.142499      8.070851      8.027225      8.052976      8.099345      8.128866      8.079673      8.107332      8.159444      8.241250      8.207143      8.309515      8.347749      8.466613      8.576859      8.528651      8.423685      8.343143      8.382570      8.482789      8.439080      8.493638      8.542016      8.516940      8.463101      8.574316      8.593175      8.647402      8.635654      8.486683      8.133173      8.050789      8.416445      8.290133      8.351133      7.974191      7.902536      7.211733      7.300607      6.228537      6.111300      6.351146      7.394785      7.495370      6.480514      4.982687      4.807577      2.637775      2.883742      0.055970      -3.629853      -4.136198      -0.295928      -0.638839      -4.630590      -5.116603      -0.975027      2.166207      2.399271      4.639446      4.476597      4.316927      4.157937      1.704657      1.935829      -1.308158      -5.603101      -6.106264      -1.643474      -1.987979      -6.650389      -7.266402      -2.350767      1.222698      1.468528      3.996775      3.830304      5.660533      5.774532      6.963826      6.882522      7.645337      8.074670      8.125828      7.707387      7.770194      8.178251      8.232756      7.834880      7.126915      5.997813      5.886234      7.044773      8.273045      7.445225      7.259894      8.120786      8.652194      8.926127      9.032890      8.779360      8.914201      9.145740      9.264288      9.056336      8.604367      8.434362      7.640351      7.844876      6.720285      6.469696      4.864065      5.179824      3.178757      0.679683      0.139287      2.769392      2.362435      -0.405709      -0.952954      1.959458      4.253638      4.555029      6.228004      5.995757      5.773345      5.560977      3.676969      3.960722      1.562063      -1.499875      -2.043738      1.171803      0.790065      -2.581752      -3.111227      0.417926      3.138517      3.402847      5.358643      5.166070      6.617773      7.603295      7.719320      6.763812      6.919275      7.084572      7.977777      7.844019      8.421577      8.532918      8.825677      8.731623      8.643913      8.318054      8.222066      8.562366      8.701313      8.704943      8.765991      8.771577      8.846647      8.926641      8.899131      8.830692      8.737081      8.796028      8.658435      8.607316      8.558344      8.680954      8.627582      8.511468      8.387504      8.428843      8.313269      8.276611      8.191106      8.135972      8.165608      8.223881      8.257791      8.196259      8.227937      8.292858      8.390605      8.516469      8.471819      8.351257      8.473424      8.610842      8.562812      8.431326      8.329095      8.260659      8.294435      8.366510      8.405105      8.329273      8.365179      8.444869      8.561685      8.516886      8.660531      8.711822      8.884248      9.059646      8.989749      8.824703      8.711721      8.767162      8.922421      8.857819      8.971325      9.047222      9.101385      9.011580      9.195858      9.126680      9.209469      9.294675      9.397375      9.295256      9.383617      9.503372      9.611971      9.722395      9.565992      9.474051      9.282200      9.359520      9.138984      9.073265      9.008736      9.206191      9.131890      8.945654      8.764631      8.818850      8.655110      8.607778      8.485789      8.402156      8.440206      8.527845      8.571013      8.479330      8.519528      8.615266      8.753217      8.930964      8.874344      8.703614      8.855402      9.046935      8.988548      8.803839      8.660577      8.560806      8.603168      8.706919      8.754271      8.646621      8.691175      8.802611      8.961062      8.907832      9.105965      9.165492      9.408119      9.673238      9.595006      9.340450      9.205612      9.272861      9.516362      9.437721      9.658837      9.751967      9.945384      9.833815      10.056273      9.844766      9.936646      10.165699      10.318448      10.340932      10.179004      10.186287      9.916737      10.052036      10.014366      9.848507      9.558839      9.762016      9.225995      8.982821      9.470846      9.964879      10.165144      9.715180      8.939387      8.651865      7.494534      7.827535      6.390035      4.647922      4.195272      6.004003      5.611934      3.729183      3.249924      5.214570      6.824839      7.159921      8.364500      8.078833      7.796261      7.518044      6.157631      6.490387      4.812695      2.757932      2.253860      4.407163      3.998924      1.738615      1.213392      3.589051      5.501336      5.827608      7.245315      6.979092      8.058230      8.279679      8.968078      8.782509      9.205204      9.387972      9.516040      9.360015      9.519736      9.647575      9.781524      9.683075      9.357583      8.743111      8.508324      9.160159      -39.817684      -41.411022      -44.012627      -42.382030      -40.636585      -38.752262      -36.298012      -38.121231      -35.667843      -33.916092      -31.620064      -33.292698      -34.857334      -37.303082      -38.845310      -36.337475      -33.905418      -32.495815      -30.230686      -31.563421      -29.322687      -27.191887      -26.025288      -28.071428      -26.753029      -24.795040      -23.476814      -25.343456      -27.326334      -28.826256      -31.008772      -29.420679      -27.705093      -25.834976      -23.933727      -25.704443      -23.816147      -22.043901      -20.469683      -22.144388      -20.304359      -18.730721      -16.810265      -18.278685      -19.854918      -21.989922      -23.785582      -21.538006      -23.325926      -25.215588      -27.694157      -25.688377      -27.844149      -29.812965      -32.021271      -29.955872      -32.163177      -34.321270      -36.701897      -34.457222      -31.991362      -29.282223      -27.202805      -29.797462      -21.291517      -24.366938      -26.316547      -23.094738      -19.636951      -15.990575      -14.534023      -17.997988      -16.443022      -13.153653      -11.850378      -14.973979      -17.954947      -19.577265      -22.508970      -20.746712      -19.083261      -16.426647      -14.993528      -17.520731      -16.060238      -14.701879      -12.412646      -13.655785      -11.088760      -9.965388      -7.399657      -8.400657      -9.474879      -12.297096      -13.591938      -10.624332      -7.591218      -4.581110      -3.726913      -6.590330      -5.651444      -4.772641      -2.161880      -2.920927      -0.308557      0.335137      2.622682      2.084133      1.521968      -0.987153      -1.701132      0.936087      0.326674      -0.305766      -3.235975      -2.450741      -5.484549      -8.655629      -9.784595      -6.437973      -7.441765      -10.978580      -12.237432      -8.495893      -4.911880      -1.636039      -0.960396      -4.056552      -17.189209      -22.737967      -24.452320      -18.597080      -12.807712      -7.531662      -6.776371      -11.741448      -10.692043      -6.018649      -5.262706      -9.662418      -14.488339      -19.458332      -21.072649      -15.819118      -11.952992      -16.392460      -17.897411      -13.198901      -8.655719      -4.512592      -3.771936      -7.674911      -6.722610      -3.043894      -2.331168      -5.801013      -9.599863      -13.560370      -14.946013      -10.752706      -30.469334      -28.352732      -24.983130      -26.952080      -23.155405      -21.357220      -17.521662      -19.124975      -22.536463      -20.797667      -25.027508      -26.968975      -31.109034      -28.996151      -32.658985      -34.912926      -39.570381      -37.220787      -33.283443      -35.511009      -31.039211      -28.974737      -24.337803      -26.197964      -30.079702      -28.113171      -33.156284      -35.319260      -40.085831      -37.782124      -41.947521      -44.335922      -51.644180      -54.032154      -56.278702      -53.982983      -51.259991      -48.056225      -45.637550      -48.860466      -46.410789      -43.201824      -40.771008      -43.938053      -46.741257      -49.211529      -51.665298      -49.219933      -41.735470      -44.172688      -46.703690      -44.237522      -41.466988      -38.364552      -35.999290      -39.019455      -36.614254      -33.689510      -31.447180      -34.267193      -36.826927      -39.149307      -41.646442      -39.258587      -49.213757      -46.623749      -44.972889      -47.562733      -45.769016      -43.193882      -41.261974      -43.806587      -48.898632      -46.361591      -48.333778      -50.856308      -52.610027      -50.120029      -51.748375      -54.190884      -58.651112      -56.503857      -54.996098      -57.241421      -55.635120      -53.302029      -51.386055      -53.789932      -58.209080      -56.075554      -57.820271      -59.813549      -61.147160      -59.310684      -60.581913      -62.262852      -68.788010      -69.244301      -69.789925      -69.390503      -68.902443      -68.294182      -67.545036      -68.233185      -67.463562      -66.686035      -65.702576      -66.580254      -67.293274      -68.093018      -68.612907      -67.884392      -67.045799      -66.374809      -65.321716      -66.082329      -64.977173      -63.711567      -62.738682      -64.116173      -63.087803      -61.568359      -60.137314      -61.828251      -63.294689      -64.410217      -65.568146      -64.578194      -63.340252      -61.765793      -60.132732      -61.904812      -60.254986      -58.372494      -56.205029      -58.273975      -55.794201      -53.580833      -50.433796      -52.744816      -54.963387      -57.857109      -59.717049      -57.042908      -58.932087      -60.613262      -62.801746      -61.359493      -63.192883      -64.601021      -65.706436      -64.448311      -65.550858      -66.674339      -67.520828      -66.517990      -65.192558      -63.411018      -62.097973      -64.073296      -55.805275      -59.426262      -60.984974      -57.658611      -53.139713      -47.250854      -45.002045      -51.017681      -48.800335      -42.766434      -40.561565      -46.541027      -51.610531      -53.778072      -57.674942      -55.728630      -53.611740      -49.357075      -47.061161      -51.376930      -49.071415      -46.717262      -42.409721      -44.739914      -39.752922      -37.520813      -32.093948      -34.152466      -36.251961      -42.006817      -44.272945      -38.389297      -31.790277      -24.632048      -23.052534      -29.881670      -28.023912      -26.214420      -20.042204      -21.525854      -14.986938      -13.889077      -8.280925      -9.023008      -9.762536      -16.109201      -17.273973      -10.514155      -11.305071      -12.172530      -19.851465      -18.510141      -26.280813      -33.754837      -35.783138      -28.019356      -29.865517      -37.883217      -40.059082      -31.828632      -22.951756      -14.288506      -13.156022      -21.326500      -47.338669      -54.636829      -56.181480      -49.275402      -40.125229      -29.158995      -26.898033      -37.863380      -35.541054      -24.684389      -22.561449      -33.213428      -42.994492      -51.051853      -52.928585      -45.229149      -38.377384      -46.829487      -49.003887      -40.691868      -30.930138      -20.568245      -18.735310      -28.734142      -26.661995      -17.073811      -15.591343      -24.731596      -33.909145      -42.304977      -44.578678      -36.102112      -63.597237      -62.369572      -59.327461      -60.818840      -56.939503      -55.122799      -49.463779      -51.589432      -55.413094      -53.583385      -58.578270      -60.049736      -63.331268      -62.148415      -64.684265      -65.645607      -67.243683      -66.494759      -64.381638      -65.312683      -62.541626      -61.366592      -57.070068      -58.563725      -61.102779      -59.904400      -63.587238      -64.515099      -66.863472      -66.136375      -67.902985      -68.481949      -70.609390      -71.048332      -71.314568      -70.926895      -70.380775      -69.601837      -69.133904      -69.997635      -69.555611      -68.597794      -67.985481      -69.047585      -69.813438      -70.373726      -70.736740      -70.240402      -68.755600      -69.465744      -69.952560      -69.321228      -68.465523      -67.287819      -66.494347      -67.800285      -67.041374      -65.593086      -64.570427      -66.176727      -67.365448      -68.260147      -68.904800      -68.107239      -70.662788      -70.259773      -69.911240      -70.359749      -69.985123      -69.483002      -68.946320      -69.512688      -70.426613      -70.003189      -70.417923      -70.789558      -71.073250      -70.744522      -71.006981      -71.299652      -71.756271      -71.547417      -71.352882      -71.589729      -71.378006      -71.107368      -70.790771      -71.102692      -71.594559      -71.368721      -71.607468      -71.801155      -71.957298      -71.789505      -71.931618      -72.078262      -2.247676      -0.326710      0.045426      -1.863161      -3.650875      -5.263495      -5.669257      -4.045465      -4.485581      -6.126879      -6.641469      -4.975594      -3.139493      -2.671922      -0.733456      -1.177665      0.841793      1.258613      3.220791      2.834582      4.733138      6.503279      6.839886      5.092075      5.430049      7.159724      7.463189      5.748142      3.915093      3.580369      1.643241      1.997927      2.324795      2.625827      4.516407      4.226608      6.047311      7.750618      8.022298      6.328394      6.592117      8.278472      8.519347      6.839105      5.036030      4.785821      2.902860      3.157574      1.238542      -0.658354      -0.915392      0.979981      0.385625      0.696378      -1.200048      -1.515000      -3.297699      -2.982092      -4.588403      -4.904736      -4.310225      -2.700485      -2.449590      -4.066247      -5.463305      -6.616862      -6.856657      -5.702729      -6.300441      -5.980228      -7.138720      -7.468330      -8.408597      -8.062610      -8.765352      -9.135319      -8.452894      -7.769139      -7.522334      -8.191610      -8.649201      -8.932529      -9.240363      -8.927855      -9.064163      -9.094645      -9.483719      -9.412227      -9.825129      -9.942155      -10.477414      -10.310155      -10.053289      -9.673099      -9.271585      -9.613158      -11.164428      -10.691391      -10.144014      -10.567962      -10.874694      -11.096990      -11.808268      -11.526104      -12.271569      -12.618363      -13.533942      -13.117929      -12.631170      -11.849855      -11.322287      -12.043624      -11.324162      -10.443598      -9.824183      -10.656974      -10.074318      -9.569384      -8.813243      -9.282928      -8.292870      -7.851087      -6.668333      -7.089174      -7.568496      -8.799770      -9.378025      -8.112039      -8.725672      -10.033903      -10.773587      -9.415294      -11.045518      -10.186715      -11.603036      -12.527824      -13.829110      -12.834766      -13.897401      -14.964866      -12.938329      -11.942763      -11.147689      -12.082514      -12.862031      -13.783679      -14.506974      -13.514895      -14.071503      -14.561036      -15.704874      -15.137918      -16.321941      -16.969717      -18.358742      -17.627340      -16.836079      -15.958081      -14.814111      -15.612603      -19.648518      -18.600895      -17.219416      -18.180668      -19.056765      -19.873934      -21.516045      -20.611685      -22.292330      -23.284542      -25.177574      -24.097654      -22.956606      -21.240585      -20.104172      -21.729723      -20.390099      -18.911140      -17.469131      -18.855900      -17.441277      -16.145035      -14.930520      -16.142883      -14.682853      -13.552986      -11.996903      -13.045531      -14.195370      -15.920916      -17.269707      -15.449551      -13.444726      -12.286866      -10.202515      -11.262410      -8.924667      -6.469336      -5.606732      -7.963623      -7.078753      -4.808587      -4.071453      -6.266162      -8.339886      -10.256921      -11.225474      -9.229649      -9.376908      -7.528837      -6.791790      -8.580624      -7.862892      -7.218329      -5.520093      -6.123858      -4.220006      -3.654190      -1.662360      -2.190717      -2.766052      -4.841089      -5.521703      -3.391793      -1.196066      0.984743      1.496948      -0.625934      -0.097977      0.390417      2.419856      1.974646      3.947435      4.352032      6.149444      5.777854      5.387914      3.517928      3.062021      4.978955      2.064952      4.101036      4.550252      2.578196      0.436035      -1.811028      -2.473504      -0.151129      -0.778642      -3.186177      -3.951698      -1.448319      0.944635      1.520865      3.630525      3.137965      5.086984      5.512382      7.141113      6.769310      8.157722      9.225349      9.507832      8.483822      8.804479      9.784695      10.053637      9.118257      7.859429      6.322038      5.924076      7.504726      6.706229      8.204490      8.539156      7.076592      7.433055      7.775525      9.174120      8.862643      10.003201      10.274372      11.012359      10.792665      10.559151      9.719146      9.423657      10.312405      10.845031      11.072337      11.228981      11.041428      11.226451      11.400035      11.514931      11.376525      11.320703      11.433142      11.218820      11.125081      11.025661      11.200980      11.074011      10.920556      10.799100      10.693894      10.809884      10.939955      10.906762      10.637536      10.419514      10.732586      10.550340      10.191952      9.956429      10.360816      10.498895      10.651880      10.572964      10.447600      10.272953      10.027071      10.115571      10.377412      10.478554      10.575967      10.285366      10.201763      9.902061      9.975578      9.675644      9.609521      9.542819      9.827043      9.750687      9.475637      9.225390      9.285555      9.069694      9.015032      8.851928      8.736846      8.783648      8.902209      8.953451      8.831596      8.880710      9.005649      9.180947      9.125008      9.345903      9.406378      9.466939      9.527566      9.294623      9.237491      9.058802      8.931002      8.982482      9.112906      9.167958      9.035156      9.089018      9.223949      9.410616      9.352335      9.588249      9.648990      9.933668      9.870127      10.186478      10.253623      10.591858      10.924403      10.843563      10.519397      10.444210      10.758574      10.669361      10.366206      10.047498      9.741130      9.805956      10.117790      10.446808      10.120954      10.182430      10.508831      10.857832      11.210485      11.144006      10.794523      10.729228      11.074366      11.001259      10.661740      10.319320      10.383676      10.059032      9.996621      9.709794      9.770670      9.528836      9.469455      9.280863      9.144053      9.200231      9.338670      9.397332      9.257505      9.315812      9.456794      9.649120      9.588737      9.831623      9.892650      9.953736      10.014849      9.771111      9.709936      9.516979      9.375063      9.435145      9.577790      9.639101      9.495918      9.557210      9.700756      9.894119      9.832549      10.075927      10.136881      10.424281      10.747602      10.689190      10.364447      10.243498      10.304173      10.629949      10.569849      10.919354      10.979270      11.335177      11.274110      11.393956      11.037731      11.094857      11.450678      11.794666      11.736262      12.034344      12.098253      12.320841      12.408269      12.315232      12.245780      12.164322      12.213794      12.103402      12.075963      11.892247      11.609718      11.674733      11.965827      11.538377      11.307001      11.389851      11.636590      11.728060      11.467674      11.540833      11.813141      11.983527      11.980212      11.876611      11.853670      11.713382      11.764749      11.644279      11.562273      10.531387      11.218083      11.409969      10.773287      10.999536      11.588324      11.753572      11.210047      9.003091      10.283515      10.028099      8.717831      8.418042      9.757640      9.472731      8.103894      10.747744      9.529179      9.273618      10.523473      11.405096      11.906230      12.046879      11.585202      11.751010      12.176135      12.294637      11.903220      11.149134      10.956263      9.769545      9.994549      10.204130      10.398357      11.489228      11.326639      12.042556      12.403025      12.501930      12.169740      12.285482      12.591964      12.673701      12.390471      11.772116      10.741673      10.577435      11.637494      10.891449      11.893799      12.003223      11.027170      11.149229      11.257990      12.187701      12.101009      12.647055      12.714851      12.927518      12.874202      12.814371      12.570702      12.485347      12.747677      12.766146      12.616589      12.662510      12.819586      12.867859      12.911214      12.743064      12.704630      12.446151      12.483957      12.174577      12.134995      12.093028      12.405502      12.362042      12.048833      12.266418      11.954000      12.002488      12.315722      12.566674      12.707221      12.642430      12.512504      12.453744      12.571336      12.493455      12.390003      12.157986      12.213929      11.903303      11.850259      11.505532      11.150729      11.205379      11.558655      11.610128      11.659976      11.310911      11.258796      10.917584      10.972181      10.657099      10.600193      10.542291      10.861869      10.805178      10.483601      10.197585      10.257874      10.016964      9.955660      9.762563      9.618810      9.680470      9.824291      9.885665      9.741901      9.802760      9.946362      10.137827      10.077785      10.317536      10.376312      10.433890      10.489906      10.254117      10.196739      10.006007      9.862657      9.921142      10.064170      10.120362      9.977712      10.031803      10.174040      10.362373      10.309501      10.543938      10.595509      10.868773      10.818988      11.127020      11.174600      11.502908      11.841255      11.799008      11.457885      11.410675      11.754559      11.708155      11.361600      11.025465      10.712751      10.766838      11.077183      11.299011      10.998733      11.033570      11.332467      11.652295      11.980750      11.951215      11.620604      11.584760      11.917783      11.880977      11.545352      11.219475      11.261136      10.959223      10.915701      10.644084      10.689078      10.458246      10.412162      10.224604      10.082795      10.130017      10.271404      10.313749      10.172754      10.210255      10.350913      10.536610      10.499962      10.729857      10.765743      10.796007      10.819862      10.591693      10.567449      10.382138      10.241737      10.266397      10.406633      10.423585      10.283428      10.292144      10.432272      10.617152      10.608514      10.836458      10.844998      11.110898      11.407049      11.398947      11.102529      11.063022      11.086296      11.383256      11.360808      11.679176      11.700501      12.025670      12.005795      12.039591      11.715431      11.723149      12.046790      12.363697      12.357150      12.651830      12.657634      12.909044      13.088274      13.083179      12.903889      12.893759      13.073028      13.057899      12.878929      12.624317      12.326364      12.344481      12.640553      12.518816      12.211547      12.245606      