<VTKFile type="UnstructuredGrid" version="1.0" byte_order="LittleEndian" header_type="UInt64">
  <UnstructuredGrid>
    <Piece NumberOfPoints="1764" NumberOfCells="1200">
      <CellData Scalars="Scalars_">
        <DataArray type="Float32" Name="Scalars_" format="ascii">
     0.680337      0.680337      0.680337      0.680337      0.675337      0.675337      0.675337      0.675337      0.667736      0.658789      0.658789      0.667736      0.667736      0.658789      0.658789      0.667736      0.667736      0.658789      0.658789      0.667736      0.675337      0.680337      0.680337      0.675337      0.675337      0.680337      0.680337      0.675337      0.667736      0.658789      0.658789      0.667736      0.667736      0.658789      0.658789      0.667736      0.667736      0.658789      0.658789      0.667736      0.675337      0.675337      0.675337      0.675337      0.680337      0.680337      0.680337      0.680337      0.680337      0.680337      0.680337      0.680337      0.675337      0.675337      0.675337      0.675337      0.667736      0.658789      0.658789      0.667736      0.667736      0.658789      0.658789      0.667736      0.667736      0.658789      0.658789      0.667736      0.675337      0.680337      0.680337      0.675337      0.675337      0.680337      0.680337      0.675337      0.667736      0.658789      0.658789      0.667736      0.667736      0.658789      0.658789      0.667736      0.667736      0.658789      0.658789      0.667736      0.675337      0.675337      0.675337      0.675337      0.680337      0.680337      0.680337      0.680337      0.680337      0.675337      0.675337      0.680337      0.680337      0.675337      0.675337      0.680337      0.680337      0.675337      0.675337      0.680337      0.680337      0.675337      0.675337      0.680337      0.680337      0.675337      0.675337      0.680337      0.680337      0.680337      0.675337      0.675337      0.667736      0.667736      0.658789      0.658789      0.658789      0.658789      0.667736      0.667736      0.667736      0.667736      0.658789      0.658789      0.658789      0.658789      0.667736      0.667736      0.667736      0.667736      0.658789      0.658789      0.658789      0.667736      0.667736      0.658789      0.658789      0.658789      0.667736      0.667736      0.675337      0.680337      0.680337      0.675337      0.675337      0.680337      0.680337      0.675337      0.667736      0.658789      0.658789      0.667736      0.667736      0.658789      0.658789      0.667736      0.667736      0.658789      0.658789      0.667736      0.675337      0.680337      0.680337      0.675337      0.675337      0.680337      0.680337      0.675337      0.675337      0.680337      0.680337      0.675337      0.675337      0.680337      0.680337      0.675337      0.667736      0.667736      0.667736      0.667736      0.658789      0.658789      0.658789      0.658789      0.648929      0.648929      0.648929      0.648929      0.638313      0.638313      0.638313      0.638313      0.626956      0.614749      0.614749      0.626956      0.626956      0.614749      0.614749      0.626956      0.626956      0.614749      0.614749      0.626956      0.626956      0.614749      0.614749      0.626956      0.638313      0.648929      0.648929      0.638313      0.638313      0.648929      0.648929      0.638313      0.638313      0.648929      0.648929      0.638313      0.614749      0.626956      0.626956      0.614749      0.614749      0.626956      0.626956      0.614749      0.638313      0.638313      0.648929      0.648929      0.648929      0.638313      0.638313      0.648929      0.648929      0.638313      0.638313      0.648929      0.648929      0.638313      0.638313      0.648929      0.648929      0.638313      0.638313      0.648929      0.648929      0.638313      0.638313      0.648929      0.648929      0.648929      0.638313      0.638313      0.626956      0.626956      0.614749      0.614749      0.614749      0.614749      0.626956      0.626956      0.626956      0.626956      0.614749      0.614749      0.614749      0.614749      0.626956      0.626956      0.626956      0.626956      0.614749      0.614749      0.614749      0.626956      0.626956      0.614749      0.601647      0.587519      0.587519      0.601647      0.601647      0.587519      0.587519      0.601647      0.601647      0.587519      0.587519      0.601647      0.601647      0.587519      0.587519      0.601647      0.601647      0.587519      0.587519      0.601647      0.601647      0.601647      0.587519      0.587519      0.572212      0.572212      0.555613      0.555613      0.555613      0.555613      0.572212      0.572212      0.572212      0.572212      0.555613      0.555613      0.555613      0.555613      0.572212      0.572212      0.572212      0.572212      0.555613      0.555613      0.555613      0.572212      0.572212      0.555613      0.555613      0.555613      0.572212      0.572212      0.587519      0.601647      0.601647      0.587519      0.587519      0.601647      0.601647      0.587519      0.572212      0.555613      0.555613      0.572212      0.572212      0.555613      0.555613      0.572212      0.572212      0.555613      0.555613      0.572212      0.587519      0.601647      0.601647      0.587519      0.587519      0.601647      0.601647      0.587519      0.587519      0.601647      0.601647      0.587519      0.587519      0.601647      0.601647      0.587519      0.572212      0.572212      0.572212      0.572212      0.555613      0.555613      0.555613      0.555613      0.537576      0.518082      0.518082      0.537576      0.537576      0.518082      0.518082      0.537576      0.537576      0.518082      0.518082      0.537576      0.537576      0.518082      0.518082      0.537576      0.537576      0.537576      0.537576      0.537576      0.518082      0.518082      0.518082      0.518082      0.497348      0.497348      0.497348      0.497348      0.475874      0.475874      0.475874      0.475874      0.475874      0.497348      0.497348      0.475874      0.475874      0.497348      0.497348      0.475874      0.475874      0.497348      0.497348      0.475874      0.475874      0.497348      0.497348      0.475874      0.454682      0.454682      0.454682      0.454682      0.435511      0.435511      0.435511      0.435511      0.420734      0.412731      0.412731      0.420734      0.420734      0.412731      0.412731      0.420734      0.420734      0.412731      0.412731      0.420734      0.435511      0.454682      0.454682      0.435511      0.435511      0.454682      0.454682      0.435511      0.420734      0.412731      0.412731      0.420734      0.420734      0.412731      0.412731      0.420734      0.420734      0.412731      0.412731      0.420734      0.435511      0.435511      0.435511      0.435511      0.454682      0.454682      0.454682      0.454682      0.454682      0.454682      0.454682      0.454682      0.435511      0.435511      0.435511      0.435511      0.420734      0.412731      0.412731      0.420734      0.420734      0.412731      0.412731      0.420734      0.420734      0.412731      0.412731      0.420734      0.435511      0.454682      0.454682      0.435511      0.435511      0.454682      0.454682      0.435511      0.420734      0.412731      0.412731      0.420734      0.420734      0.412731      0.412731      0.420734      0.420734      0.412731      0.412731      0.420734      0.435511      0.435511      0.435511      0.435511      0.454682      0.454682      0.454682      0.454682      0.475874      0.475874      0.475874      0.475874      0.497348      0.497348      0.497348      0.497348      0.518082      0.537576      0.537576      0.518082      0.518082      0.537576      0.537576      0.518082      0.518082      0.537576      0.537576      0.518082      0.518082      0.537576      0.537576      0.518082      0.497348      0.475874      0.475874      0.497348      0.497348      0.475874      0.475874      0.497348      0.497348      0.475874      0.475874      0.497348      0.518082      0.537576      0.537576      0.518082      0.518082      0.537576      0.537576      0.518082      0.497348      0.497348      0.475874      0.475874      0.475874      0.475874      0.497348      0.497348      0.518082      0.537576      0.537576      0.518082      0.518082      0.537576      0.537576      0.518082      0.497348      0.475874      0.475874      0.497348      0.497348      0.475874      0.475874      0.497348      0.497348      0.475874      0.475874      0.497348      0.518082      0.537576      0.537576      0.518082      0.518082      0.537576      0.537576      0.518082      0.518082      0.537576      0.537576      0.518082      0.518082      0.537576      0.537576      0.518082      0.497348      0.497348      0.497348      0.497348      0.475874      0.475874      0.475874      0.475874      0.454682      0.454682      0.454682      0.454682      0.435511      0.435511      0.435511      0.435511      0.420734      0.412731      0.412731      0.420734      0.420734      0.412731      0.412731      0.420734      0.420734      0.412731      0.412731      0.420734      0.435511      0.454682      0.454682      0.435511      0.435511      0.454682      0.454682      0.435511      0.420734      0.412731      0.412731      0.420734      0.420734      0.412731      0.412731      0.420734      0.420734      0.412731      0.412731      0.420734      0.435511      0.435511      0.435511      0.435511      0.454682      0.454682      0.454682      0.454682      0.454682      0.454682      0.454682      0.454682      0.435511      0.435511      0.435511      0.435511      0.420734      0.412731      0.412731      0.420734      0.420734      0.412731      0.412731      0.420734      0.420734      0.412731      0.412731      0.420734      0.435511      0.454682      0.454682      0.435511      0.435511      0.454682      0.454682      0.435511      0.420734      0.412731      0.412731      0.420734      0.420734      0.412731      0.412731      0.420734      0.420734      0.412731      0.412731      0.420734      0.435511      0.435511      0.435511      0.435511      0.454682      0.454682      0.454682      0.454682      0.475874      0.497348      0.497348      0.475874      0.475874      0.497348      0.497348      0.475874      0.475874      0.497348      0.497348      0.475874      0.475874      0.497348      0.497348      0.475874      0.475874      0.475874      0.475874      0.475874      0.497348      0.497348      0.497348      0.497348      0.518082      0.518082      0.518082      0.518082      0.537576      0.537576      0.537576      0.537576      0.537576      0.518082      0.518082      0.537576      0.537576      0.518082      0.518082      0.537576      0.537576      0.518082      0.518082      0.537576      0.537576      0.518082      0.518082      0.537576      0.555613      0.555613      0.555613      0.555613      0.572212      0.572212      0.572212      0.572212      0.587519      0.601647      0.601647      0.587519      0.587519      0.601647      0.601647      0.587519      0.587519      0.601647      0.601647      0.587519      0.587519      0.601647      0.601647      0.587519      0.572212      0.555613      0.555613      0.572212      0.572212      0.555613      0.555613      0.572212      0.572212      0.555613      0.555613      0.572212      0.587519      0.601647      0.601647      0.587519      0.587519      0.601647      0.601647      0.587519      0.572212      0.572212      0.555613      0.555613      0.555613      0.572212      0.572212      0.555613      0.555613      0.572212      0.572212      0.555613      0.555613      0.572212      0.572212      0.555613      0.555613      0.572212      0.572212      0.555613      0.555613      0.555613      0.555613      0.555613      0.572212      0.572212      0.572212      0.572212      0.587519      0.587519      0.587519      0.587519      0.601647      0.601647      0.601647      0.601647      0.601647      0.587519      0.587519      0.601647      0.601647      0.587519      0.587519      0.601647      0.601647      0.587519      0.587519      0.601647      0.587519      0.601647      0.601647      0.587519      0.614749      0.626956      0.626956      0.614749      0.614749      0.626956      0.626956      0.614749      0.614749      0.626956      0.626956      0.614749      0.614749      0.626956      0.626956      0.614749      0.614749      0.614749      0.614749      0.614749      0.626956      0.626956      0.626956      0.626956      0.638313      0.638313      0.638313      0.638313      0.648929      0.648929      0.648929      0.648929      0.648929      0.638313      0.638313      0.648929      0.648929      0.638313      0.638313      0.648929      0.648929      0.638313      0.638313      0.648929      0.638313      0.648929      0.648929      0.638313      0.648929      0.648929      0.638313      0.638313      0.614749      0.626956      0.626956      0.614749      0.614749      0.626956      0.626956      0.614749      0.638313      0.648929      0.648929      0.638313      0.638313      0.648929      0.648929      0.638313      0.638313      0.648929      0.648929      0.638313      0.626956      0.614749      0.614749      0.626956      0.626956      0.614749      0.614749      0.626956      0.626956      0.614749      0.614749      0.626956      0.626956      0.614749      0.614749      0.626956      0.638313      0.638313      0.638313      0.638313      0.648929      0.648929      0.648929      0.648929      0.648929      0.648929      0.648929      0.648929      0.638313      0.638313      0.638313      0.638313      0.626956      0.614749      0.614749      0.626956      0.626956      0.614749      0.614749      0.626956      0.626956      0.614749      0.614749      0.626956      0.626956      0.614749      0.614749      0.626956      0.638313      0.648929      0.648929      0.638313      0.638313      0.648929      0.648929      0.638313      0.638313      0.648929      0.648929      0.638313      0.614749      0.626956      0.626956      0.614749      0.614749      0.626956      0.626956      0.614749      0.638313      0.638313      0.648929      0.648929      0.555613      0.555613      0.572212      0.572212      0.587519      0.601647      0.601647      0.587519      0.587519      0.601647      0.601647      0.587519      0.572212      0.555613      0.555613      0.572212      0.572212      0.555613      0.555613      0.572212      0.572212      0.555613      0.555613      0.572212      0.587519      0.601647      0.601647      0.587519      0.587519      0.601647      0.601647      0.587519      0.587519      0.601647      0.601647      0.587519      0.587519      0.601647      0.601647      0.587519      0.572212      0.572212      0.572212      0.572212      0.555613      0.555613      0.555613      0.555613      0.537576      0.518082      0.518082      0.537576      0.537576      0.518082      0.518082      0.537576      0.537576      0.518082      0.518082      0.537576      0.537576      0.518082      0.518082      0.537576      0.537576      0.537576      0.537576      0.537576      0.518082      0.518082      0.518082      0.518082      0.497348      0.497348      0.497348      0.497348      0.475874      0.475874      0.475874      0.475874      0.475874      0.497348      0.497348      0.475874      0.475874      0.497348      0.497348      0.475874      0.475874      0.497348      0.497348      0.475874      0.475874      0.497348      0.497348      0.475874      0.454682      0.454682      0.454682      0.454682      0.435511      0.435511      0.435511      0.435511      0.420734      0.412731      0.412731      0.420734      0.420734      0.412731      0.412731      0.420734      0.420734      0.412731      0.412731      0.420734      0.435511      0.454682      0.454682      0.435511      0.435511      0.454682      0.454682      0.435511      0.420734      0.412731      0.412731      0.420734      0.420734      0.412731      0.412731      0.420734      0.420734      0.412731      0.412731      0.420734      0.435511      0.435511      0.435511      0.435511      0.454682      0.454682      0.454682      0.454682      0.658789      0.667736      0.667736      0.658789      0.658789      0.667736      0.667736      0.658789      0.658789      0.667736      0.667736      0.658789      0.658789      0.667736      0.667736      0.658789      0.658789      0.658789      0.658789      0.658789      0.667736      0.667736      0.667736      0.667736      0.675337      0.675337      0.675337      0.675337      0.680337      0.680337      0.680337      0.680337      0.680337      0.675337      0.675337      0.680337      0.680337      0.675337      0.675337      0.680337      0.680337      0.675337      0.675337      0.680337      0.680337      0.675337      0.675337      0.680337         </DataArray>
      </CellData>
      <Points>
        <DataArray type="Float64" Name="Points" NumberOfComponents="3" format="ascii">
7600.000000 3200.000000 0.000000
8000.000000 3200.000000 0.000000
8000.000000 3600.000000 0.000000
7600.000000 3600.000000 0.000000
7600.000000 3200.000000 400.000000
8000.000000 3200.000000 400.000000
8000.000000 3600.000000 400.000000
7600.000000 3600.000000 400.000000
7600.000000 3200.000000 800.000000
8000.000000 3200.000000 800.000000
8000.000000 3600.000000 800.000000
7600.000000 3600.000000 800.000000
8000.000000 4000.000000 400.000000
7600.000000 4000.000000 400.000000
8000.000000 4000.000000 800.000000
7600.000000 4000.000000 800.000000
8000.000000 4000.000000 0.000000
7600.000000 4000.000000 0.000000
7200.000000 3600.000000 0.000000
7200.000000 4000.000000 0.000000
7200.000000 3600.000000 400.000000
7200.000000 4000.000000 400.000000
7200.000000 3600.000000 800.000000
7200.000000 4000.000000 800.000000
7200.000000 3200.000000 400.000000
7200.000000 3200.000000 800.000000
7200.000000 3200.000000 0.000000
6800.000000 3200.000000 0.000000
6800.000000 3600.000000 0.000000
6800.000000 3200.000000 400.000000
6800.000000 3600.000000 400.000000
6400.000000 3200.000000 0.000000
6400.000000 3600.000000 0.000000
6400.000000 3200.000000 400.000000
6400.000000 3600.000000 400.000000
6800.000000 4000.000000 0.000000
6400.000000 4000.000000 0.000000
6800.000000 4000.000000 400.000000
6400.000000 4000.000000 400.000000
6800.000000 3600.000000 800.000000
6800.000000 4000.000000 800.000000
6400.000000 3600.000000 800.000000
6400.000000 4000.000000 800.000000
6400.000000 3200.000000 800.000000
6800.000000 3200.000000 800.000000
6800.000000 3200.000000 1200.000000
7200.000000 3200.000000 1200.000000
7200.000000 3600.000000 1200.000000
6800.000000 3600.000000 1200.000000
6400.000000 3200.000000 1200.000000
6400.000000 3600.000000 1200.000000
6800.000000 4000.000000 1200.000000
6400.000000 4000.000000 1200.000000
7200.000000 4000.000000 1200.000000
7600.000000 3200.000000 1200.000000
7600.000000 3600.000000 1200.000000
8000.000000 3200.000000 1200.000000
8000.000000 3600.000000 1200.000000
8000.000000 4000.000000 1200.000000
7600.000000 4000.000000 1200.000000
7600.000000 4400.000000 800.000000
7200.000000 4400.000000 800.000000
7600.000000 4400.000000 1200.000000
7200.000000 4400.000000 1200.000000
8000.000000 4400.000000 800.000000
8000.000000 4400.000000 1200.000000
8000.000000 4800.000000 800.000000
7600.000000 4800.000000 800.000000
8000.000000 4800.000000 1200.000000
7600.000000 4800.000000 1200.000000
7200.000000 4800.000000 800.000000
7200.000000 4800.000000 1200.000000
6800.000000 4400.000000 800.000000
6800.000000 4400.000000 1200.000000
6400.000000 4400.000000 800.000000
6400.000000 4400.000000 1200.000000
6800.000000 4800.000000 800.000000
6400.000000 4800.000000 800.000000
6800.000000 4800.000000 1200.000000
6400.000000 4800.000000 1200.000000
6800.000000 4400.000000 400.000000
7200.000000 4400.000000 400.000000
7200.000000 4800.000000 400.000000
6800.000000 4800.000000 400.000000
6400.000000 4400.000000 400.000000
6400.000000 4800.000000 400.000000
7200.000000 4400.000000 0.000000
6800.000000 4400.000000 0.000000
6400.000000 4400.000000 0.000000
6800.000000 4800.000000 0.000000
6400.000000 4800.000000 0.000000
7200.000000 4800.000000 0.000000
7600.000000 4400.000000 0.000000
7600.000000 4800.000000 0.000000
7600.000000 4400.000000 400.000000
7600.000000 4800.000000 400.000000
8000.000000 4400.000000 0.000000
8000.000000 4400.000000 400.000000
8000.000000 4800.000000 400.000000
8000.000000 4800.000000 0.000000
8000.000000 5200.000000 0.000000
7600.000000 5200.000000 0.000000
8000.000000 5200.000000 400.000000
7600.000000 5200.000000 400.000000
8000.000000 5200.000000 800.000000
7600.000000 5200.000000 800.000000
8000.000000 5600.000000 400.000000
7600.000000 5600.000000 400.000000
8000.000000 5600.000000 800.000000
7600.000000 5600.000000 800.000000
8000.000000 5600.000000 0.000000
7600.000000 5600.000000 0.000000
7200.000000 5200.000000 0.000000
7200.000000 5600.000000 0.000000
7200.000000 5200.000000 400.000000
7200.000000 5600.000000 400.000000
7200.000000 5200.000000 800.000000
7200.000000 5600.000000 800.000000
6800.000000 5200.000000 0.000000
6800.000000 5200.000000 400.000000
6400.000000 5200.000000 0.000000
6400.000000 5200.000000 400.000000
6800.000000 5600.000000 0.000000
6400.000000 5600.000000 0.000000
6800.000000 5600.000000 400.000000
6400.000000 5600.000000 400.000000
6800.000000 5200.000000 800.000000
6800.000000 5600.000000 800.000000
6400.000000 5200.000000 800.000000
6400.000000 5600.000000 800.000000
7200.000000 5200.000000 1200.000000
6800.000000 5200.000000 1200.000000
6400.000000 5200.000000 1200.000000
6800.000000 5600.000000 1200.000000
6400.000000 5600.000000 1200.000000
7200.000000 5600.000000 1200.000000
7600.000000 5200.000000 1200.000000
8000.000000 5200.000000 1200.000000
8000.000000 5600.000000 1200.000000
7600.000000 5600.000000 1200.000000
7600.000000 6000.000000 800.000000
7200.000000 6000.000000 800.000000
7600.000000 6000.000000 1200.000000
7200.000000 6000.000000 1200.000000
8000.000000 6000.000000 800.000000
8000.000000 6000.000000 1200.000000
8000.000000 6400.000000 800.000000
7600.000000 6400.000000 800.000000
8000.000000 6400.000000 1200.000000
7600.000000 6400.000000 1200.000000
7200.000000 6400.000000 800.000000
7200.000000 6400.000000 1200.000000
6800.000000 6000.000000 800.000000
6800.000000 6000.000000 1200.000000
6400.000000 6000.000000 800.000000
6400.000000 6000.000000 1200.000000
6800.000000 6400.000000 800.000000
6400.000000 6400.000000 800.000000
6800.000000 6400.000000 1200.000000
6400.000000 6400.000000 1200.000000
6800.000000 6000.000000 400.000000
7200.000000 6000.000000 400.000000
7200.000000 6400.000000 400.000000
6800.000000 6400.000000 400.000000
6400.000000 6000.000000 400.000000
6400.000000 6400.000000 400.000000
7200.000000 6000.000000 0.000000
6800.000000 6000.000000 0.000000
6400.000000 6000.000000 0.000000
6800.000000 6400.000000 0.000000
6400.000000 6400.000000 0.000000
7200.000000 6400.000000 0.000000
7600.000000 6000.000000 0.000000
7600.000000 6400.000000 0.000000
7600.000000 6000.000000 400.000000
7600.000000 6400.000000 400.000000
8000.000000 6000.000000 0.000000
8000.000000 6000.000000 400.000000
8000.000000 6400.000000 400.000000
8000.000000 6400.000000 0.000000
7600.000000 2400.000000 800.000000
8000.000000 2400.000000 800.000000
8000.000000 2800.000000 800.000000
7600.000000 2800.000000 800.000000
7600.000000 2400.000000 1200.000000
8000.000000 2400.000000 1200.000000
8000.000000 2800.000000 1200.000000
7600.000000 2800.000000 1200.000000
7200.000000 2400.000000 800.000000
7200.000000 2800.000000 800.000000
7200.000000 2400.000000 1200.000000
7200.000000 2800.000000 1200.000000
7600.000000 2800.000000 400.000000
8000.000000 2800.000000 400.000000
7200.000000 2800.000000 400.000000
7200.000000 2800.000000 0.000000
7600.000000 2800.000000 0.000000
8000.000000 2800.000000 0.000000
7600.000000 2400.000000 0.000000
8000.000000 2400.000000 0.000000
7600.000000 2400.000000 400.000000
8000.000000 2400.000000 400.000000
7200.000000 2400.000000 0.000000
7200.000000 2400.000000 400.000000
7600.000000 2000.000000 400.000000
8000.000000 2000.000000 400.000000
7600.000000 2000.000000 800.000000
8000.000000 2000.000000 800.000000
7200.000000 2000.000000 400.000000
7200.000000 2000.000000 800.000000
7200.000000 2000.000000 0.000000
7600.000000 2000.000000 0.000000
8000.000000 2000.000000 0.000000
7600.000000 1600.000000 0.000000
8000.000000 1600.000000 0.000000
7600.000000 1600.000000 400.000000
8000.000000 1600.000000 400.000000
7200.000000 1600.000000 0.000000
7200.000000 1600.000000 400.000000
7200.000000 1600.000000 800.000000
7600.000000 1600.000000 800.000000
8000.000000 1600.000000 800.000000
7600.000000 1600.000000 1200.000000
8000.000000 1600.000000 1200.000000
8000.000000 2000.000000 1200.000000
7600.000000 2000.000000 1200.000000
7200.000000 2000.000000 1200.000000
7200.000000 1600.000000 1200.000000
6800.000000 1600.000000 800.000000
6800.000000 2000.000000 800.000000
6800.000000 1600.000000 1200.000000
6800.000000 2000.000000 1200.000000
6800.000000 2400.000000 800.000000
6800.000000 2400.000000 1200.000000
6400.000000 2000.000000 800.000000
6400.000000 2400.000000 800.000000
6400.000000 2000.000000 1200.000000
6400.000000 2400.000000 1200.000000
6400.000000 1600.000000 800.000000
6400.000000 1600.000000 1200.000000
6400.000000 1600.000000 400.000000
6800.000000 1600.000000 400.000000
6800.000000 2000.000000 400.000000
6400.000000 2000.000000 400.000000
6400.000000 1600.000000 0.000000
6800.000000 1600.000000 0.000000
6800.000000 2000.000000 0.000000
6400.000000 2000.000000 0.000000
6800.000000 2400.000000 400.000000
6800.000000 2400.000000 0.000000
6400.000000 2400.000000 0.000000
6400.000000 2400.000000 400.000000
6800.000000 2800.000000 400.000000
6400.000000 2800.000000 400.000000
6800.000000 2800.000000 800.000000
6400.000000 2800.000000 800.000000
6800.000000 2800.000000 0.000000
6400.000000 2800.000000 0.000000
6400.000000 2800.000000 1200.000000
6800.000000 2800.000000 1200.000000
6400.000000 400.000000 800.000000
6800.000000 400.000000 800.000000
6800.000000 800.000000 800.000000
6400.000000 800.000000 800.000000
6400.000000 400.000000 1200.000000
6800.000000 400.000000 1200.000000
6800.000000 800.000000 1200.000000
6400.000000 800.000000 1200.000000
6400.000000 0.000000 800.000000
6800.000000 0.000000 800.000000
6400.000000 0.000000 1200.000000
6800.000000 0.000000 1200.000000
7200.000000 0.000000 800.000000
7200.000000 400.000000 800.000000
7200.000000 0.000000 1200.000000
7200.000000 400.000000 1200.000000
7200.000000 800.000000 800.000000
7200.000000 800.000000 1200.000000
7600.000000 0.000000 800.000000
7600.000000 400.000000 800.000000
7600.000000 0.000000 1200.000000
7600.000000 400.000000 1200.000000
8000.000000 0.000000 800.000000
8000.000000 400.000000 800.000000
8000.000000 0.000000 1200.000000
8000.000000 400.000000 1200.000000
8000.000000 800.000000 800.000000
7600.000000 800.000000 800.000000
8000.000000 800.000000 1200.000000
7600.000000 800.000000 1200.000000
7600.000000 1200.000000 800.000000
7200.000000 1200.000000 800.000000
7600.000000 1200.000000 1200.000000
7200.000000 1200.000000 1200.000000
8000.000000 1200.000000 800.000000
8000.000000 1200.000000 1200.000000
6800.000000 1200.000000 800.000000
6800.000000 1200.000000 1200.000000
6400.000000 1200.000000 800.000000
6400.000000 1200.000000 1200.000000
6800.000000 1200.000000 400.000000
7200.000000 1200.000000 400.000000
6400.000000 1200.000000 400.000000
6400.000000 800.000000 400.000000
6800.000000 800.000000 400.000000
7200.000000 800.000000 400.000000
6800.000000 800.000000 0.000000
7200.000000 800.000000 0.000000
7200.000000 1200.000000 0.000000
6800.000000 1200.000000 0.000000
6400.000000 800.000000 0.000000
6400.000000 1200.000000 0.000000
7600.000000 1200.000000 0.000000
7600.000000 1200.000000 400.000000
8000.000000 1200.000000 0.000000
8000.000000 1200.000000 400.000000
7600.000000 800.000000 400.000000
8000.000000 800.000000 400.000000
7600.000000 800.000000 0.000000
8000.000000 800.000000 0.000000
7200.000000 400.000000 0.000000
7600.000000 400.000000 0.000000
7200.000000 400.000000 400.000000
7600.000000 400.000000 400.000000
8000.000000 400.000000 0.000000
8000.000000 400.000000 400.000000
7200.000000 0.000000 400.000000
7600.000000 0.000000 400.000000
8000.000000 0.000000 400.000000
7600.000000 0.000000 0.000000
8000.000000 0.000000 0.000000
7200.000000 0.000000 0.000000
6800.000000 0.000000 0.000000
6800.000000 400.000000 0.000000
6800.000000 0.000000 400.000000
6800.000000 400.000000 400.000000
6400.000000 400.000000 0.000000
6400.000000 400.000000 400.000000
6400.000000 0.000000 400.000000
6400.000000 0.000000 0.000000
6000.000000 0.000000 0.000000
6000.000000 400.000000 0.000000
6000.000000 0.000000 400.000000
6000.000000 400.000000 400.000000
6000.000000 0.000000 800.000000
6000.000000 400.000000 800.000000
6000.000000 800.000000 400.000000
6000.000000 800.000000 800.000000
6000.000000 800.000000 0.000000
5600.000000 400.000000 0.000000
5600.000000 800.000000 0.000000
5600.000000 400.000000 400.000000
5600.000000 800.000000 400.000000
5600.000000 400.000000 800.000000
5600.000000 800.000000 800.000000
5600.000000 0.000000 400.000000
5600.000000 0.000000 800.000000
5600.000000 0.000000 0.000000
5200.000000 0.000000 0.000000
5200.000000 400.000000 0.000000
5200.000000 0.000000 400.000000
5200.000000 400.000000 400.000000
4800.000000 0.000000 0.000000
4800.000000 400.000000 0.000000
4800.000000 0.000000 400.000000
4800.000000 400.000000 400.000000
4800.000000 0.000000 800.000000
5200.000000 0.000000 800.000000
5200.000000 400.000000 800.000000
4800.000000 400.000000 800.000000
5200.000000 800.000000 400.000000
5200.000000 800.000000 800.000000