<VTKFile type="UnstructuredGrid" version="1.0" byte_order="LittleEndian" header_type="UInt64">
  <UnstructuredGrid>
    <Piece NumberOfPoints="40602" NumberOfCells="20000">
      <CellData Scalars="Scalars_">
        <DataArray type="Float32" Name="Scalars_" format="ascii">
     24.723658      24.723658      24.697109      24.697109      24.653559      24.602835      24.602835      24.653559      24.653559      24.602835      24.602835      24.653561      24.697109      24.697109      24.723658      24.723660      24.723660      24.723661      24.697111      24.697111      24.653561      24.602837      24.602837      24.653563      24.653563      24.602839      24.602839      24.653564      24.697115      24.697113      24.723661      24.723663      24.723665      24.723667      24.697119      24.697117      24.653566      24.602840      24.602842      24.653568      24.653570      24.602844      24.602848      24.653574      24.697124      24.697121      24.723671      24.723673      24.723677      24.723680      24.697130      24.697126      24.653576      24.602850      24.602854      24.653580      24.653584      24.602858      24.602863      24.653589      24.697140      24.697136      24.723684      24.723690      24.723696      24.723701      24.697151      24.697145      24.653595      24.602867      24.602873      24.653601      24.653606      24.602880      24.602886      24.653614      24.697166      24.697159      24.723709      24.723717      24.723726      24.723736      24.697186      24.697176      24.653624      24.602896      24.602903      24.653631      24.653643      24.602915      24.602926      24.653654      24.697208      24.697197      24.723747      24.723759      24.723774      24.723789      24.697237      24.697222      24.653667      24.602938      24.602953      24.653683      24.653700      24.602968      24.602987      24.653717      24.697273      24.697254      24.723806      24.723825      24.723846      24.723869      24.697317      24.697294      24.653738      24.603006      24.603027      24.653761      24.653786      24.603052      24.603079      24.653812      24.697371      24.697342      24.723896      24.723925      24.654102      24.603363      24.603420      24.654160      24.697725      24.724285      24.724224      24.697666      24.697611      24.724169      24.724117      24.697561      24.653999      24.654049      24.603310      24.603262      24.603218      24.653954      24.653913      24.603178      24.603142      24.603109      24.653843      24.653877      24.697437      24.697403      24.723955      24.723991      24.724030      24.697474      24.697515      24.724072      24.603552      24.603483      24.654224      24.654295      24.697863      24.697792      24.724350      24.724422      24.724586      24.724501      24.697939      24.698025      24.654453      24.654371      24.603626      24.603706      24.603889      24.603794      24.654543      24.654640      24.698214      24.698114      24.724678      24.724779      24.725004      24.724886      24.698320      24.698437      24.654858      24.654745      24.603991      24.604103      24.655937      24.605165      24.605366      24.656139      24.699734      24.726313      24.726107      24.699530      24.699339      24.725914      24.725733      24.699160      24.655571      24.655746      24.604979      24.604805      24.604643      24.655407      24.655254      24.604492      24.604351      24.604223      24.654980      24.655111      24.698694      24.698561      24.725128      24.725264      24.725409      24.698837      24.698994      24.725565      24.605808      24.605579      24.656355      24.656588      24.700188      24.699953      24.726534      24.726768      24.727285      24.727018      24.700436      24.700703      24.657097      24.656834      24.606054      24.606316      24.606890      24.606592      24.657379      24.657677      24.701286      24.700985      24.727570      24.727873      24.728533      24.728193      24.701605      24.701942      24.658329      24.657993      24.607204      24.607538      24.010090      23.955774      23.956009      24.010326      24.064583      24.118788      24.118546      24.064344      24.064121      24.118320      24.118113      24.063915      24.009665      24.009871      23.955557      23.955353      23.900972      23.901173      23.846714      23.846518      23.791983      23.737368      23.737560      23.792177      23.792389      23.737768      23.737993      23.792616      23.847158      23.846928      23.901388      23.901621      23.901871      23.902138      23.847670      23.847404      23.792860      23.738235      23.738495      23.793123      23.793406      23.738775      23.739075      23.793707      23.848259      23.847954      23.902424      23.902731      23.957129      24.011456      24.011145      23.956820      23.956530      23.956261      24.010582      24.010853      24.065115      24.064840      24.119045      24.119322      24.119617      24.065409      24.065722      24.119934      24.174109      24.228262      24.227943      24.173790      24.173492      24.173214      24.227362      24.227642      24.281801      24.281519      24.335718      24.336004      24.336308      24.282104      24.282425      24.336632      24.390917      24.390591      24.444979      24.445307      24.499763      24.554071      24.553740      24.499434      24.499125      24.553427      24.553133      24.498833      24.444382      24.389997      24.390285      24.444672      24.443855      24.389477      24.389729      24.444111      24.498560      24.552856      24.552599      24.498302      24.498062      24.552357      24.552130      24.497837      24.443396      24.443619      24.389240      24.389021      24.334749      24.280560      24.280775      24.334969      24.335451      24.335201      24.281006      24.281254      24.227098      24.226854      24.172709      24.172953      24.172482      24.226624      24.226410      24.172270      24.172073      24.226212      24.226027      24.171890      24.171722      24.171564      24.225697      24.225855      24.279997      24.279835      24.334017      24.334181      24.334356      24.280170      24.280357      24.334547      24.388815      24.388624      24.442995      24.443188      24.497627      24.551918      24.551720      24.497433      24.497250      24.551535      24.551363      24.497080      24.442646      24.388281      24.388445      24.442814      24.442347      24.387983      24.388126      24.442490      24.496922      24.551203      24.551054      24.496777      24.496641      24.550917      24.550789      24.496515      24.442089      24.442213      24.387852      24.387730      24.333475      24.279301      24.279419      24.333595      24.333866      24.333725      24.279547      24.279686      24.225548      24.225412      24.171286      24.171419      24.171162      24.225286      24.225170      24.171047      24.116905      24.062725      24.062836      24.117018      24.117271      24.117140      24.062956      24.063086      24.008846      24.008718      23.954420      23.954546      23.954304      24.008600      24.008493      23.954197      23.899834      23.899937      23.845495      23.845394      23.790876      23.736277      23.736376      23.790977      23.791086      23.736485      23.736603      23.791206      23.845730      23.845608      23.900051      23.900175      23.900311      23.900455      23.846008      23.845863      23.791338      23.736732      23.736872      23.791481      23.791636      23.737024      23.737188      23.791801      23.846334      23.846165      23.900616      23.900787      23.955166      23.954992      24.009298      24.009476      24.063723      24.117918      24.117737      24.063543      24.063379      24.117569      24.117414      24.063227      24.008986      23.954681      23.954830      24.009136      24.008011      23.953728      23.953789      24.008074      24.062296      24.116467      24.116400      24.062231      24.062172      24.116339      24.116283      24.062117      24.007900      24.007952      23.953671      23.953619      23.899269      23.899319      23.844891      23.844843      23.790339      23.735750      23.735796      23.790384      23.790436      23.735846      23.735901      23.790493      23.845003      23.844944      23.899374      23.899433      23.899498      23.899570      23.845137      23.845066      23.790554      23.735962      23.736031      23.790625      23.790701      23.736105      23.736187      23.790785      23.845301      23.845215      23.899651      23.899738      23.954100      24.008394      24.008303      23.954012      23.953930      23.953856      24.008144      24.008219      24.062447      24.062368      24.116539      24.116619      24.116707      24.062531      24.062624      24.116802      24.170940      24.225061      24.224962      24.170845      24.170755      24.170673      24.224789      24.224873      24.278999      24.278913      24.333082      24.333168      24.333261      24.279091      24.279192      24.333364      24.387617      24.387514      24.441870      24.441975      24.496399      24.550671      24.550562      24.496292      24.496193      24.550463      24.550369      24.496103      24.441685      24.387331      24.387419      24.441772      24.441526      24.387178      24.387251      24.441603      24.496019      24.550283      24.550205      24.495943      24.495872      24.550133      24.550066      24.495808      24.441395      24.441458      24.387112      24.387049      24.332806      24.278643      24.278702      24.332867      24.333004      24.332932      24.278765      24.278837      24.224712      24.224644      24.170530      24.170599      24.170467      24.224579      24.224522      24.170410      24.170359      24.224470      24.224422      24.170313      24.170269      24.170231      24.224340      24.224379      24.278496      24.278456      24.332615      24.332657      24.332703      24.278540      24.278589      24.332752      24.386993      24.386942      24.441284      24.441338      24.495747      24.550005      24.549948      24.495693      24.495644      24.549898      24.549850      24.495598      24.441193      24.386852      24.386896      24.441236      24.441116      24.386780      24.386814      24.441153      24.495556      24.549809      24.549768      24.495520      24.495485      24.549734      24.549702      24.495453      24.441053      24.441084      24.386747      24.386719      24.332485      24.278332      24.278358      24.332514      24.332579      24.332544      24.278387      24.278421      24.224304      24.224274      24.170166      24.170197      24.170137      24.224245      24.224218      24.170113      24.115990      24.061832      24.061855      24.116014      24.116074      24.116043      24.061882      24.061913      24.007702      24.007673      23.953400      23.953428      23.953375      24.007647      24.007624      23.953352      23.899012      23.899035      23.844618      23.844597      23.790100      23.735521      23.735540      23.790121      23.790142      23.735561      23.735584      23.790167      23.844666      23.844641      23.899057      23.899084      23.899115      23.899147      23.844727      23.844694      23.790194      23.735611      23.735640      23.790224      23.790258      23.735674      23.735710      23.790297      23.844801      23.844761      23.899183      23.899225      23.953573      23.953531      24.007809      24.007853      24.062067      24.116232      24.116186      24.062023      24.061983      24.116144      24.116106      24.061945      24.007734      23.953459      23.953493      24.007769      22.905659      22.849489      22.849508      22.905680      22.961739      23.017689      23.017666      22.961718      22.961699      23.017647      23.017630      22.961681      22.905624      22.905640      22.849470      22.849455      22.849442      22.905611      22.905598      22.849430      22.849421      22.849411      22.905579      22.905586      22.961643      22.961634      23.017578      23.017590      23.017601      22.961655      22.961666      23.017614      23.073452      23.129183      23.129168      23.073439      23.073425      23.073416      23.129143      23.129154      23.184776      23.184765      23.240278      23.240292      23.240305      23.184790      23.184805      23.240322      23.240341      23.240362      23.184843      23.184822      23.129198      23.073467      23.073486      23.129217      23.129238      23.073507      23.073530      23.129263      23.184891      23.240412      23.240385      23.184864      23.351116      23.295801      23.295830      23.351147      23.406363      23.461481      23.461451      23.406332      23.406305      23.461422      23.461395      23.406281      23.351067      23.351091      23.295776      23.295755      23.295736      23.351048      23.351028      23.295717      23.295702      23.295689      23.350998      23.351013      23.406221      23.406208      23.461319      23.461336      23.461353      23.406239      23.406258      23.461372      23.516394      23.571323      23.571302      23.516373      23.516354      23.516338      23.571266      23.571283      23.626122      23.626104      23.680857      23.680874      23.680895      23.626143      23.626163      23.680918      23.680943      23.680971      23.626217      23.626188      23.571346      23.516417      23.516443      23.571375      23.571405      23.516474      23.516506      23.571438      23.626282      23.681038      23.681004      23.626247      23.571810      23.516867      23.516941      23.571886      23.626741      23.681507      23.681425      23.626661      23.626589      23.681353      23.681286      23.626524      23.571674      23.516735      23.516798      23.571739      23.571566      23.516630      23.516680      23.571617      23.626465      23.681225      23.681171      23.626411      23.626364      23.681122      23.681078      23.626320      23.571476      23.516542      23.516584      23.571518      23.295897      23.295860      23.351179      23.351215      23.406435      23.406397      23.461517      23.461557      23.461649      23.461601      23.406477      23.406525      23.351301      23.351255      23.295935      23.295979      23.296082      23.296026      23.351351      23.351408      23.406633      23.406576      23.461704      23.461763      23.461903      23.461830      23.406698      23.406769      23.351538      23.351469      23.296141      23.296207      23.129543      23.073801      23.073860      23.129604      23.185242      23.240776      23.240711      23.185179      23.185123      23.240654      23.240601      23.185072      23.129438      23.073700      23.073748      23.129488      23.129356      23.073620      23.073658      23.129395      23.185028      23.240555      23.240513      23.184986      23.184950      23.240475      23.240442      23.184919      23.129290      23.073557      23.073586      23.129322      22.849558      22.849531      22.905704      22.905731      22.961792      22.961763      23.017714      23.017742      23.017813      23.017776      22.961824      22.961859      22.905796      22.905762      22.849586      22.849621      22.849699      22.849657      22.905834      22.905878      22.961945      22.961899      23.017855      23.017900      23.018011      23.017952      22.961996      22.962053      22.905983      22.905928      22.849747      22.849800      22.906580      22.850378      22.850500      22.906706      22.962797      23.018774      23.018644      22.962667      22.962551      23.018524      23.018415      22.962446      22.906364      22.906467      22.850269      22.850168      22.850079      22.906271      22.906187      22.849997      22.849924      22.849857      22.906044      22.906113      22.962187      22.962116      23.018076      23.018148      23.018229      22.962263      22.962351      23.018318      23.074175      23.129927      23.129833      23.074085      23.074001      23.073927      23.129673      23.129749      23.185390      23.185312      23.240849      23.240927      23.241014      23.185476      23.185572      23.241112      23.241220      23.241339      23.185793      23.185677      23.130030      23.074276      23.074387      23.130142      23.130268      23.074509      23.074644      23.130404      23.186058      23.241610      23.241468      23.185919      23.352259      23.296913      23.297058      23.352407      23.407656      23.462809      23.462658      23.407507      23.407370      23.462519      23.462391      23.407246      23.352003      23.352125      23.296782      23.296661      23.296553      23.351891      23.351789      23.296453      23.296362      23.296282      23.351614      23.351698      23.406933      23.406847      23.461983      23.462070      23.462168      23.407028      23.407131      23.462275      23.517323      23.572277      23.572166      23.517214      23.517115      23.517023      23.571972      23.572063      23.626923      23.626827      23.681595      23.681692      23.681799      23.627028      23.627140      23.681915      23.682041      23.682178      23.627399      23.627264      23.572399      23.517441      23.517570      23.572531      23.572676      23.517714      23.517868      23.572832      23.627707      23.682491      23.682329      23.627546      23.574364      23.519381      23.519670      23.574657      23.629551      23.684357      23.684059      23.629255      23.628983      23.683783      23.683523      23.628727      23.573839      23.518862      23.519112      23.574093      23.573389      23.518415      23.518631      23.573605      23.628490      23.683285      23.683062      23.628269      23.628067      23.682858      23.682667      23.627878      23.573002      23.518036      23.518217      23.573189      23.297388      23.297216      23.352568      23.352741      23.407997      23.407820      23.462975      23.463154      23.463562      23.463350      23.408190      23.408398      23.353138      23.352932      23.297575      23.297779      23.298239      23.297998      23.353361      23.353603      23.408869      23.408625      23.463791      23.464037      23.464592      23.464304      23.409132      23.409416      23.354145      23.353865      23.298496      23.298775      23.131781      23.075998      23.076263      23.132050      23.187729      23.243303      23.243027      23.187456      23.187204      23.242773      23.242537      23.186972      23.131302      23.075525      23.075752      23.131531      23.130896      23.075127      23.075317      23.131090      23.186756      23.242319      23.242119      23.186560      23.186378      23.241934      23.241764      23.186211      23.130554      23.074791      23.074951      23.130718      22.850782      22.850636      22.906843      22.906994      22.963091      22.962936      23.018919      23.019075      23.019436      23.019247      22.963261      22.963444      22.907341      22.907160      22.850945      22.851122      22.851530      22.851318      22.907539      22.907755      22.963865      22.963646      23.019640      23.019863      23.020369      23.020107      22.964106      22.964365      22.908247      22.907991      22.851763      22.852016      23.406124      23.461233      23.461229      23.406122      23.350918      23.295614      23.295616      23.350920      23.350924      23.295620      23.295622      23.350927      23.406132      23.406128      23.461237      23.461241      23.516256      23.516253      23.571177      23.571180      23.626017      23.680765      23.680759      23.626013      23.626009      23.680756      23.680752      23.626005      23.571169      23.571173      23.516249      23.516245      23.516241      23.516239      23.571163      23.571167      23.626001      23.680748      23.680746      23.625999      23.625996      23.680742      23.680740      23.625994      23.571159      23.571161      23.516237      23.516235      23.461222      23.406113      23.406115      23.461224      23.461227      23.461226      23.406116      23.406118      23.350914      23.350912      23.295610      23.295612      23.295609      23.350910      23.350910      23.295607      23.240202      23.184692      23.184694      23.240204      23.240206      23.240204      23.184694      23.184696      23.129080      23.129080      23.073355      23.073357      23.073355      23.129078      23.129078      23.073353      23.017521      23.017523      22.961580      22.961578      22.905525      22.849361      22.849363      22.905527      22.905527      22.849363      22.849363      22.905529      22.961582      23.017525      23.017523      22.961580      22.961584      23.017527      23.017525      22.961582      22.905529      22.849365      22.849367      22.905531      22.905533      22.849369      22.849371      22.905535      22.961588      22.961586      23.017529      23.017530      23.073364      23.129089      23.129087      23.073362      23.073360      23.073359      23.129082      23.129084      23.184700      23.184698      23.240208      23.240211      23.240213      23.184704      23.184706      23.240217      23.240221      23.184710      23.184713      23.240225      23.240234      23.240229      23.184717      23.184723      23.129105      23.129101      23.073376      23.073380      23.073372      23.129097      23.129093      23.073368      23.017534      23.017538      22.961594      22.961590      22.905537      22.849373      22.849375      22.905540      22.905542      22.849379      22.849382      22.905546      22.961601      23.017546      23.017540      22.961597      22.961611      23.017555      23.017550      22.961605      22.905552      22.849386      22.849390      22.905558      22.905563      22.849396      22.849403      22.905569      22.961624      22.961617      23.017563      23.017570      23.073406      23.129133      23.129126      23.073399      23.073391      23.073385      23.129110      23.129118      23.184736      23.184729      23.240242      23.240250      23.240257      23.184744      23.184753      23.240267      23.295677      23.295668      23.350975      23.350985      23.406195      23.461306      23.461294      23.406181      23.406172      23.461283      23.461273      23.406162      23.350956      23.295650      23.295658      23.350964      23.295643      23.350948      23.350943      23.295637      23.295631      23.295628      23.350931      23.350937      23.406141      23.406137      23.461245      23.461250      23.461258      23.406147      23.406155      23.461266      23.516281      23.571207      23.571199      23.516273      23.516268      23.516262      23.571186      23.571192      23.626030      23.626022      23.680771      23.680777      23.680784      23.626036      23.626045      23.680794      23.626064      23.680815      23.680803      23.626053      23.571217      23.516289      23.516300      23.571226      23.571238      23.516312      23.516323      23.571251      23.626089      23.626076      23.680826      23.680841      23.735504      23.735491      23.790068      23.790083      23.844578      23.898993      23.898975      23.844563      23.844547      23.898960      23.898947      23.844534      23.790041      23.735466      23.735477      23.790054      23.735455      23.790031      23.790022      23.735447      23.735437      23.735432      23.790005      23.790012      23.844503      23.844496      23.898907      23.898914      23.898924      23.844513      23.844522      23.898935      23.953272      24.007538      24.007526      23.953260      23.953251      23.953241      24.007507      24.007517      24.061722      24.061712      24.115868      24.115879      24.115889      24.061733      24.061745      24.115902      24.061773      24.115931      24.115915      24.061758      24.007551      23.953283      23.953299      24.007566      24.007584      23.953314      23.953333      24.007603      24.061811      24.061790      24.115950      24.115969      24.170092      24.224195      24.224174      24.170071      24.170053      24.170036      24.224138      24.224155      24.278267      24.278250      24.332399      24.332418      24.332439      24.278286      24.278307      24.332460      24.386692      24.386669      24.441002      24.441027      24.495426      24.549673      24.549646      24.495399      24.495377      24.549623      24.549601      24.495356      24.440960      24.440979      24.386648      24.386629      24.386612      24.386597      24.440926      24.440941      24.495338      24.549582      24.549564      24.495321      24.495306      24.549549      24.549536      24.495293      24.440897      24.440910      24.386581      24.386570      24.332344      24.332355      24.278208      24.278196      24.224089      24.169989      24.169998      24.224098      24.224112      24.170010      24.170023      24.224125      24.278234      24.332384      24.332369      24.278219      24.278170      24.332315      24.332308      24.278162      24.224056      24.169958      24.169964      24.224064      24.224072      24.169971      24.169979      24.224079      24.278187      24.278177      24.332325      24.332333      24.386559      24.386549      24.440876      24.440886      24.495279      24.549522      24.549511      24.495270      24.495260      24.549501      24.549494      24.495251      24.440859      24.440866      24.386539      24.386532      24.386526      24.386518      24.440845      24.440851      24.495243      24.549484      24.549479      24.495237      24.495232      24.549473      24.549467      24.495226      24.440834      24.440840      24.386515      24.386509      24.332287      24.278141      24.278147      24.332291      24.332302      24.332296      24.278151      24.278156      24.224051      24.224045      24.169947      24.169952      24.169943      24.224041      24.224037      24.169939      24.115822      24.115826      24.061672      24.061668      24.007463      23.953199      23.953203      24.007467      24.007471      23.953207      23.953211      24.007475      24.061680      24.115835      24.115829      24.061676      24.061705      24.115860      24.115852      24.061697      24.061691      24.115845      24.115839      24.061686      23.953215      24.007481      24.007486      23.953220      23.953226      24.007492      24.007500      23.953234      23.844488      23.898899      23.898891      23.844482      23.844477      23.898886      23.898882      23.844473      23.735411      23.789984      23.789988      23.735415      23.735420      23.789993      23.789999      23.735424      23.789976      23.735403      23.735407      23.789980      23.844469      23.898876      23.898872      23.844465      23.844461      23.898870      23.898867      23.844460      23.789970      23.789972      23.735401      23.735399      23.735397      23.735395      23.789967      23.789968      23.844456      23.898865      23.898863      23.844454      23.844452      23.898861      23.898859      23.844450      23.789963      23.735392      23.735394      23.789965      23.735392      23.789963      23.789961      23.735390      23.735390      23.735388      23.789959      23.789961      23.844448      23.844446      23.898853      23.898855      23.898855      23.844448      23.844450      23.898857      23.953190      24.007454      24.007452      23.953188      23.953186      23.953186      24.007450      24.007450      24.061653      24.061653      24.115807      24.115807      24.115808      24.061655      24.061657      24.115810      24.061661      24.115814      24.115812      24.061659      24.007454      23.953192      23.953192      24.007456      24.007458      23.953196      23.953197      24.007462      24.061665      24.061663      24.115816      24.115820      24.169935      24.224033      24.224031      24.169933      24.169931      24.169928      24.224026      24.224028      24.278131      24.278130      24.332273      24.332275      24.332279      24.278135      24.278137      24.332283      24.386505      24.386501      24.440826      24.440830      24.495220      24.549461      24.549458      24.495216      24.495213      24.549454      24.549450      24.495211      24.440819      24.440823      24.386497      24.386496      24.386492      24.386490      24.440813      24.440817      24.495207      24.549448      24.549444      24.495205      24.495203      24.549442      24.549440      24.495201      24.440811      24.440811      24.386488      24.386486      24.332266      24.332268      24.278124      24.278122      24.224020      24.169922      24.169924      24.224020      24.224022      24.169926      24.169928      24.224024      24.278128      24.332272      24.332270      24.278126      24.278120      24.332262      24.332262      24.278118      24.224016      24.169920      24.169920      24.224016      24.224018      24.169920      24.169922      24.224018      24.278122      24.278120      24.332264      24.332264      24.386486      24.386484      24.440807      24.440809      24.495199      24.549438      24.549437      24.495197      24.495197      24.549437      24.549435      24.495195      24.440805      24.440807      24.386482      24.386482      24.386482      24.386482      24.440805      24.440805      24.495195      24.549435      24.549435      24.495195      24.495193      24.549435      24.549433      24.495193      24.440804      24.440804      24.386480      24.386480      24.332260      24.278118      24.278118      24.332260      24.332262      24.332260      24.278118      24.278118      24.224016      24.224014      24.169918      24.169918      24.169918      24.22