<VTKFile type="UnstructuredGrid" version="1.0" byte_order="LittleEndian" header_type="UInt64">
  <UnstructuredGrid>
    <Piece NumberOfPoints="40602" NumberOfCells="20000">
      <CellData Scalars="Scalars_">
        <DataArray type="Float32" Name="Scalars_" format="ascii">
     20.791178      20.791178      20.764235      20.764235      20.718988      20.664614      20.664614      20.718988      20.718988      20.664616      20.664616      20.718990      20.764236      20.764236      20.791180      20.791180      20.791182      20.791182      20.764238      20.764238      20.718990      20.664618      20.664618      20.718992      20.718994      20.664619      20.664621      20.718996      20.764242      20.764240      20.791183      20.791185      20.791189      20.791191      20.764248      20.764244      20.718998      20.664623      20.664627      20.719000      20.719004      20.664629      20.664633      20.719007      20.764256      20.764252      20.791195      20.791199      20.791203      20.791208      20.764263      20.764259      20.719011      20.664637      20.664640      20.719015      20.719021      20.664646      20.664652      20.719027      20.764275      20.764269      20.791214      20.791220      20.791227      20.791235      20.764290      20.764282      20.719034      20.664660      20.664667      20.719042      20.719049      20.664675      20.664684      20.719059      20.764309      20.764299      20.791245      20.791254      20.791265      20.791277      20.764334      20.764320      20.719070      20.664694      20.664705      20.719082      20.719097      20.664719      20.664734      20.719110      20.764362      20.764347      20.791292      20.791307      20.791325      20.791344      20.764399      20.764380      20.719128      20.664751      20.664768      20.719147      20.719168      20.664789      20.664810      20.719191      20.764442      20.764420      20.791367      20.791389      20.791416      20.791445      20.764498      20.764469      20.719215      20.664835      20.664864      20.719244      20.719275      20.664894      20.664927      20.719309      20.764565      20.764530      20.791477      20.791513      20.719666      20.665277      20.665348      20.719736      20.764999      20.791952      20.791878      20.764927      20.764860      20.791811      20.791750      20.764799      20.719540      20.719599      20.665213      20.665154      20.665100      20.719484      20.719435      20.665051      20.665005      20.664965      20.719347      20.719389      20.764645      20.764603      20.791552      20.791594      20.791641      20.764692      20.764742      20.791693      20.665508      20.665424      20.719814      20.719900      20.765165      20.765078      20.792032      20.792120      20.792316      20.792213      20.765259      20.765360      20.720093      20.719992      20.665598      20.665697      20.665918      20.665804      20.720201      20.720318      20.765589      20.765471      20.792427      20.792547      20.792818      20.792677      20.765718      20.765856      20.720581      20.720446      20.666044      20.666178      20.721878      20.667461      20.667702      20.722122      20.767412      20.794382      20.794136      20.767166      20.766939      20.793907      20.793692      20.766726      20.721441      20.721653      20.667236      20.667027      20.666832      20.721243      20.721060      20.666649      20.666481      20.666325      20.720730      20.720888      20.766167      20.766006      20.792969      20.793129      20.793304      20.766340      20.766525      20.793491      20.668234      20.667959      20.722382      20.722658      20.767952      20.767673      20.794645      20.794926      20.795542      20.795223      20.768248      20.768564      20.723267      20.722952      20.668526      20.668839      20.669525      20.669170      20.723602      20.723957      20.769258      20.768902      20.795879      20.796236      20.797020      20.796618      20.769638      20.770039      20.724733      20.724335      20.669901      20.670298      19.975063      19.910044      19.910334      19.975357      20.040136      20.104677      20.104382      20.039843      20.039566      20.104105      20.103846      20.039310      19.974537      19.974791      19.909771      19.909519      19.844254      19.844505      19.778984      19.778736      19.712959      19.646921      19.647165      19.713205      19.713470      19.647429      19.647711      19.713757      19.779539      19.779251      19.844774      19.845062      19.845373      19.845705      19.780178      19.779846      19.714062      19.648016      19.648342      19.714392      19.714745      19.648693      19.649069      19.715120      19.780910      19.780533      19.846062      19.846441      19.911720      19.976749      19.976366      19.911339      19.910980      19.910646      19.975672      19.976007      20.040791      20.040453      20.104996      20.105335      20.105696      20.041151      20.041536      20.106083      20.170395      20.234474      20.234085      20.170008      20.169643      20.169304      20.233379      20.233721      20.297562      20.297216      20.360802      20.361147      20.361515      20.297928      20.298317      20.361906      20.425196      20.424803      20.487684      20.488079      20.550320      20.611414      20.611017      20.549925      20.549553      20.610645      20.610292      20.549202      20.486965      20.424088      20.424435      20.487314      20.486332      20.423456      20.423761      20.486639      20.548874      20.609962      20.609652      20.548565      20.548277      20.609362      20.609089      20.548006      20.485775      20.486044      20.423170      20.422903      20.359625      20.296047      20.296310      20.359890      20.360477      20.360174      20.296593      20.296894      20.233057      20.232758      20.168686      20.168983      20.168407      20.232477      20.232216      20.168148      20.167906      20.231972      20.231745      20.167681      20.167471      20.167276      20.231337      20.231533      20.295359      20.295162      20.358732      20.358932      20.359146      20.295572      20.295801      20.359377      20.422655      20.422422      20.485291      20.485525      20.547752      20.608833      20.608595      20.547516      20.547295      20.608372      20.608164      20.547089      20.484867      20.422003      20.422205      20.485071      20.484501      20.421640      20.421814      20.484678      20.546898      20.607971      20.607792      20.546721      20.546555      20.607624      20.607470      20.546402      20.484186      20.484339      20.421478      20.421329      20.358065      20.294502      20.294649      20.358213      20.358545      20.358374      20.294807      20.294977      20.231155      20.230986      20.166929      20.167097      20.166775      20.230831      20.230686      20.166634      20.102348      20.037828      20.037966      20.102488      20.102804      20.102640      20.038116      20.038279      19.973515      19.973354      19.908348      19.908506      19.908203      19.973206      19.973070      19.908068      19.842817      19.842951      19.777445      19.777315      19.711554      19.645533      19.645660      19.711683      19.711824      19.645800      19.645950      19.711977      19.777742      19.777588      19.843094      19.843252      19.843422      19.843607      19.778093      19.777912      19.712145      19.646114      19.646294      19.712324      19.712521      19.646486      19.646696      19.712730      19.778505      19.778292      19.843805      19.844021      19.909285      19.909067      19.974081      19.974300      20.039072      20.103605      20.103382      20.038851      20.038645      20.103176      20.102983      20.038456      19.973688      19.908680      19.908865      19.973877      19.972456      19.907467      19.907545      19.972538      20.037287      20.101795      20.101711      20.037203      20.037127      20.101633      20.101562      20.037058      19.972315      19.972382      19.907394      19.907328      19.842093      19.842155      19.776665      19.776602      19.710855      19.644844      19.644905      19.710917      19.710983      19.644970      19.645042      19.711058      19.776810      19.776735      19.842228      19.842304      19.842390      19.842484      19.776985      19.776894      19.711140      19.645124      19.645212      19.711229      19.711329      19.645309      19.645416      19.711435      19.777195      19.777084      19.842585      19.842697      19.907944      19.972944      19.972830      19.907831      19.907728      19.907633      19.972626      19.972723      20.037476      20.037376      20.101889      20.101990      20.102098      20.037584      20.037701      20.102219      20.166502      20.230553      20.230429      20.166380      20.166269      20.166166      20.230211      20.230316      20.294128      20.294022      20.357580      20.357687      20.357803      20.294243      20.294367      20.357929      20.421190      20.421064      20.483917      20.484047      20.546261      20.607327      20.607193      20.546129      20.546009      20.607071      20.606956      20.545897      20.483688      20.420837      20.420946      20.483799      20.483496      20.420647      20.420738      20.483587      20.545794      20.606852      20.606756      20.545700      20.545612      20.606667      20.606585      20.545532      20.483332      20.483410      20.420563      20.420486      20.357235      20.293682      20.293756      20.357309      20.357481      20.357391      20.293837      20.293926      20.230116      20.230030      20.165987      20.166073      20.165907      20.229950      20.229877      20.165836      20.165770      20.229811      20.229750      20.165710      20.165657      20.165607      20.229645      20.229694      20.293497      20.293446      20.356993      20.357046      20.357103      20.293552      20.293615      20.357166      20.420416      20.420353      20.483194      20.483259      20.545458      20.606510      20.606440      20.545391      20.545330      20.606377      20.606319      20.545273      20.483078      20.420240      20.420294      20.483133      20.482983      20.420147      20.420191      20.483028      20.545221      20.606266      20.606218      20.545174      20.545132      20.606174      20.606134      20.545094      20.482903      20.482941      20.420107      20.420071      20.356829      20.293285      20.293320      20.356863      20.356947      20.356903      20.293358      20.293400      20.229599      20.229559      20.165524      20.165564      20.165487      20.229521      20.229488      20.165453      20.101189      20.036690      20.036722      20.101221      20.101295      20.101255      20.036757      20.036795      19.972057      19.972021      19.907042      19.907078      19.907009      19.971987      19.971956      19.906979      19.841753      19.841782      19.776302      19.776276      19.710537      19.644537      19.644562      19.710564      19.710594      19.644590      19.644623      19.710627      19.776367      19.776333      19.841814      19.841850      19.841888      19.841932      19.776447      19.776405      19.710663      19.644657      19.644697      19.710705      19.710749      19.644741      19.644791      19.710800      19.776546      19.776495      19.841980      19.842033      19.907269      19.907213      19.972197      19.972252      20.036995      20.101500      20.101440      20.036938      20.036884      20.101387      20.101339      20.036839      19.972099      19.907118      19.907164      19.972145      18.620186      18.549374      18.549404      18.620216      18.690693      18.760839      18.760807      18.690660      18.690632      18.760778      18.760752      18.690607      18.620134      18.620157      18.549349      18.549324      18.549303      18.620111      18.620092      18.549286      18.549269      18.549255      18.620062      18.620077      18.690548      18.690533      18.760675      18.760691      18.760708      18.690565      18.690584      18.760729      18.830547      18.900043      18.900023      18.830526      18.830507      18.830492      18.899986      18.900003      18.969181      18.969162      19.038027      19.038046      19.038067      18.969200      18.969223      19.038090      19.038116      19.038147      18.969278      18.969250      18.900068      18.830570      18.830597      18.900097      18.900127      18.830627      18.830662      18.900164      18.969347      19.038218      19.038181      18.969311      19.175001      19.106743      19.106783      19.175043      19.243004      19.310673      19.310629      19.242962      19.242924      19.310591      19.310555      19.242891      19.174932      19.174965      19.106709      19.106676      19.106649      19.174904      19.174877      19.106625      19.106602      19.106583      19.174833      19.174854      19.242809      19.242788      19.310450      19.310471      19.310495      19.242834      19.242861      19.310524      19.377899      19.444994      19.444963      19.377871      19.377846      19.377823      19.444914      19.444937      19.511751      19.511728      19.578268      19.578293      19.578320      19.511778      19.511808      19.578352      19.578386      19.578424      19.511881      19.511843      19.445026      19.377932      19.377968      19.445063      19.445105      19.378008      19.378054      19.445150      19.511969      19.578514      19.578466      19.511923      19.445641      19.378532      19.378632      19.445744      19.512573      19.579130      19.579025      19.512470      19.512377      19.578930      19.578842      19.512291      19.445465      19.378361      19.378443      19.445549      19.445320      19.378220      19.378286      19.445389      19.512213      19.578762      19.578691      19.512142      19.512079      19.578627      19.578568      19.512022      19.445202      19.378103      19.378159      19.445257      19.106874      19.106825      19.175087      19.175138      19.243103      19.243052      19.310720      19.310774      19.310900      19.310835      19.243160      19.243225      19.175257      19.175194      19.106928      19.106989      19.107130      19.107056      19.175325      19.175400      19.243374      19.243296      19.310972      19.311052      19.311237      19.311140      19.243460      19.243553      19.175577      19.175484      19.107212      19.107302      18.900557      18.831047      18.831129      18.900642      18.969839      19.038723      19.038635      18.969751      18.969673      19.038555      19.038483      18.969604      18.900412      18.830906      18.830973      18.900480      18.900295      18.830791      18.830845      18.900351      18.969542      19.038418      19.038361      18.969484      18.969433      19.038307      19.038261      18.969387      18.900202      18.830700      18.830744      18.900246      18.549477      18.549438      18.620253      18.620291      18.690769      18.690729      18.760878      18.760920      18.761019      18.760965      18.690815      18.690866      18.620386      18.620337      18.549520      18.549568      18.549683      18.549622      18.620441      18.620504      18.690989      18.690924      18.761078      18.761143      18.761297      18.761215      18.691059      18.691139      18.620651      18.620573      18.549749      18.549826      18.621479      18.550634      18.550802      18.621649      18.692160      18.762339      18.762161      18.691986      18.691828      18.762001      18.761852      18.691683      18.621181      18.621323      18.550482      18.550344      18.550219      18.621054      18.620937      18.550104      18.550001      18.549910      18.620737      18.620832      18.691324      18.691227      18.761387      18.761488      18.761597      18.691433      18.691551      18.761719      18.831560      18.901081      18.900953      18.831436      18.831324      18.831223      18.900736      18.900839      18.970039      18.969934      19.038820      19.038929      19.039047      18.970156      18.970285      19.039177      19.039320      19.039478      18.970581      18.970425      18.901218      18.831697      18.831846      18.901371      18.901539      18.832010      18.832190      18.901720      18.970934      19.039837      19.039650      18.970749      19.176535      19.108242      19.108433      19.176727      19.244722      19.312426      19.312227      19.244528      19.244349      19.312046      19.311880      19.244184      19.176195      19.176357      19.108068      19.107910      19.107763      19.176048      19.175913      19.107632      19.107512      19.107401      19.175678      19.175791      19.243773      19.243658      19.311344      19.311460      19.311588      19.243898      19.244036      19.311728      19.379131      19.446253      19.446108      19.378990      19.378860      19.378740      19.445854      19.445974      19.512810      19.512686      19.579245      19.579370      19.579508      19.512945      19.513092      19.579657      19.579819      19.579994      19.513426      19.513252      19.446409      19.379288      19.379456      19.446581      19.446766      19.379639      19.379839      19.446968      19.513819      19.580393      19.580185      19.513615      19.448921      19.381775      19.382143      19.449291      19.516157      19.582748      19.582375      19.515785      19.515440      19.582027      19.581701      19.515116      19.448256      19.381115      19.381433      19.448576      19.447681      19.380545      19.380819      19.447958      19.514816      19.581400      19.581118      19.514538      19.514278      19.580858      19.580616      19.514040      19.447187      19.380056      19.380291      19.447424      19.108866      19.108641      19.176935      19.177164      19.245165      19.244934      19.312639      19.312872      19.313395      19.313124      19.245413      19.245684      19.177677      19.177410      19.109110      19.109373      19.109970      19.109659      19.177965      19.178278      19.246288      19.245974      19.313688      19.314005      19.314711      19.314346      19.246626      19.246990      19.178976      19.178614      19.110304      19.110662      18.903536      18.833984      18.834333      18.903887      18.973124      19.042048      19.041689      18.972769      18.972439      19.041359      19.041052      18.972136      18.902908      18.833363      18.833662      18.903210      18.902372      18.832834      18.833088      18.902630      18.971855      19.040768      19.040506      18.971596      18.971355      19.040264      19.040041      18.971136      18.901920      18.832386      18.832602      18.902138      18.551188      18.550985      18.621838      18.622042      18.692558      18.692350      18.762531      18.762743      18.763224      18.762974      18.692785      18.693033      18.622509      18.622265      18.551409      18.551649      18.552198      18.551912      18.622776      18.623066      18.693594      18.693302      18.763496      18.763792      18.764460      18.764112      18.693913      18.694256      18.623722      18.623381      18.552511      18.552849      19.242668      19.310324      19.310318      19.242662      19.174715      19.106468      19.106472      19.174719      19.174725      19.106478      19.106482      19.174730      19.242678      19.242672      19.310329      19.310335      19.377705      19.377699      19.444786      19.444792      19.511602      19.578136      19.578129      19.511595      19.511589      19.578123      19.578117      19.511583      19.444775      19.444780      19.377693      19.377687      19.377684      19.377680      19.444765      19.444769      19.511580      19.578112      19.578108      19.511574      19.511570      19.578104      19.578100      19.511568      19.444759      19.444763      19.377676      19.377672      19.310305      19.242649      19.242653      19.310307      19.310314      19.310310      19.242655      19.242659      19.174711      19.174707      19.106461      19.106464      19.106459      19.174704      19.174702      19.106457      19.037909      18.969051      18.969053      19.037910      19.037916      19.037912      18.969055      18.969057      18.899887      18.899883      18.830395      18.830397      18.830393      18.899881      18.899879      18.830391      18.760580      18.760582      18.690443      18.690443      18.619974      18.549173      18.549173      18.619976      18.619978      18.549175      18.549177      18.619980      18.690447      18.760586      18.760584      18.690445      18.690453      18.760592      18.760588      18.690451      18.619982      18.549179      18.549183      18.619986      18.619987      18.549185      18.549189      18.619991      18.690460      18.690456      18.760595      18.760599      18.830410      18.899900      18.899897      18.830406      18.830402      18.830400      18.899889      18.899893      18.969065      18.969061      19.037918      19.037922      19.037928      18.969069      18.969072      19.037931      19.037937      18.969078      18.969086      19.037945      19.037962      19.037952      18.969091      18.969101      18.899927      18.899920      18.830427      18.830435      18.830421      18.899912      18.899906      18.830416      18.760603      18.760609      18.690470      18.690464      18.619995      18.549192      18.549196      18.620001      18.620007      18.549202      18.549208      18.620012      18.690481      18.760622      18.760614      18.690475      18.690498      18.760639      18.760630      18.690489      18.620020      18.549215      18.549223      18.620028      18.620037      18.549232      18.549244      18.620049      18.690519      18.690508      18.760649      18.760662      18.830477      18.899971      18.899958      18.830465      18.830454      18.830444      18.899935      18.899946      18.969120      18.969110      19.037971      19.037983      19.037994      18.969133      18.969147      19.038010      19.106565      19.106548      19.174799      19.174816      19.242769      19.310429      19.310411      19.242752      19.242737      19.310396      19.310383      19.242723      19.174772      19.106524      19.106535      19.174786      19.106514      19.174763      19.174751      19.106504      19.106495      19.106489      19.174736      19.174744      19.242693      19.242685      19.310343      19.310350      19.310360      19.242702      19.242712      19.310371      19.377741      19.444830      19.444818      19.377731      19.377720      19.377712      19.444799      19.444809      19.511620      19.511610      19.578146      19.578156      19.578167      19.511629      19.511642      19.578178      19.511671      19.578209      19.578192      19.511656      19.444843      19.377754      19.377768      19.444859      19.444874      19.377785      19.377802      19.444893      19.511705      19.511686      19.578226      19.578245      19.644514      19.644493      19.710491      19.710514      19.776251      19.841728      19.841705      19.776228      19.776209      19.841684      19.841665      19.776190      19.710457      19.644459      19.644474      19.710472      19.644444      19.710442      19.710428      19.644430      19.644419      19.644409      19.710405      19.710415      19.776148      19.776136      19.841610      19.841621      19.841635      19.776161      19.776175      19.841650      19.906870      19.971844      19.971828      19.906855      19.906841      19.906830      19.971802      19.971813      20.036545      20.036531      20.101027      20.101040      20.101053      20.036558      20.036575      20.101070      20.036613      20.101110      20.101089      20.036592      19.971861      19.906887      19.906906      19.971882      19.971903      19.906929      19.906952      19.971928      20.036661      20.036636      20.101133      20.101160      20.165424      20.229458      20.229431      20.165398      20.165375      20.165352      20.229383      20.229406      20.293201      20.293179      20.356718      20.356741      20.356768      20.293226      20.293255      20.356796      20.420036      20.420006      20.482838      20.482868      20.545057      20.606098      20.606066      20.545025      20.544996      20.606035      20.606009      20.544970      20.482784      20.482809      20.419979      20.419954      20.419933      20.419912      20.482740      20.482761      20.544947      20.605984      20.605963      20.544926      20.544907      20.605942      20.605925      20.544889      20.482706      20.482721      20.419895      20.419878      20.356644      20.356659      20.293123      20.293108      20.229317      20.165287      20.165300      20.229330      20.229347      20.165316      20.165333      20.229364      20.293158      20.356695      20.356676      20.293139      20.293072      20.356607      20.356596      20.293062      20.229273      20.165247      20.165255      20.229282      20.229292      20.165264      20.165276      20.229303      20.293095      20.293083      20.356617      20.356630      20.419865      20.419851      20.482677      20.482691      20.544872      20.605909      20.605894      20.544859      20.544847      20.605883      20.605871      20.544836      20.482655      20.482664      20.419840      20.419830      20.419821      20.419811      20.482635      20.482645      20.544827      20.605860      20.605852      20.544817      20.544809      20.605843      20.605837      20.544802      20.482622      20.482628      20.419806      20.419798      20.356567      20.293036      20.293041      20.356573      20.356588      20.356581      20.293047      20.293055      20.229265      20.229259      20.165232      20.165239      20.165226      20.229252      20.229246      20.165220      20.100962      20.100967      20.036474      20.036469      19.971741      19.906771      19.906776      19.971746      19.971750      19.906780      19.906786      19.971756      20.036486      20.100979      20.100973      20.036480      20.036520      20.101013      20.101004      20.036510      20.036501      20.100994      20.100986      20.036493      19.906794      19.971764      19.971771      19.906801      19.906809      19.971781      19.971790      19.906818      19.776127      19.841599      19.841591      19.776117      19.776110      19.841581      19.841576      19.776104      19.644379      19.710373      19.710381      19.644386      19.644392      19.710386      19.710396      19.644400      19.710363      19.644369      19.644375      19.710367      19.776098      19.841568      19.841564      19.776093      19.776089      19.841558      19.841555      19.776083      19.710354      19.710358      19.644365      19.644361      19.644360      19.644356      19.710348      19.710352      19.776081      19.841551      19.841547      19.776077      19.776075      19.841545      19.841541      19.776072      19.710344      19.644352      19.644354      19.710346      19.644350      19.710342      19.710340      19.644348      19.644346      19.644346      19.710339      19.710339      19.776068      19.776066      19.841536      19.841536      19.841537      19.776068      19.776070      19.841539      19.906755      19.971725      19.971724      19.906754      19.906752      19.906752      19.971720      19.971722      20.036449      20.036448      20.100939      20.100941      20.100943      20.036451      20.036453      20.100945      20.036459      20.100950      20.100946      20.036455      19.971727      19.906757      19.906761      19.971729      19.971733      19.906763      19.906767      19.971737      20.036465      20.036461      20.100954      20.100958      20.165216      20.229242      20.229239      20.165213      20.165209      20.165205      20.229231      20.229235      20.293022      20.293018      20.356550      20.356552      20.356558      20.293026      20.293030      20.356562      20.419792      20.419788      20.482611      20.482616      20.544796      20.605829      20.605824      20.544790      20.544786      20.605820      20.605814      20.544781      20.482601      20.482605      20.419783      20.419779      20.419777      20.419773      20.482595      20.482597      20.544777      20.605810      20.605806      20.544775      20.544771      20.605804      20.605803      20.544769      20.482590      20.482592      20.419771      20.419767      20.356539      20.356541      20.293011      20.293009      20.229221      20.165197      20.165199      20.229223      20.229225      20.165201      20.165203      20.229227      20.293015      20.356546      20.356543      20.293013      20.293003      20.356535      20.356533      20.293003      20.229216      20.165192      20.165194      20.229218      20.229219      20.165194      20.165195      20.229219      20.293007      20.293005      20.356535      20.356537      20.419767      20.419765      20.482586      20.482588      20.544767      20.605799      20.605797      20.544765      20.544764      20.605797      20.605795      20.544762      20.482584      20.482584      20.419764      20.419762      20.419762      20.419762      20.482582      20.482582      20.544762      20.605795      20.605793      20.544762      20.544760      20.605793      20.605793      20.544760      20.482582      20.482582      20.419760      20.419760      20.356531      20.293001      20.293001      20.356531      20.356533      20.356531      20.293001      20.293001      20.229216      20.229216      20.165192      20.165192      20.165190      20.22