<VTKFile type="UnstructuredGrid" version="1.0" byte_order="LittleEndian" header_type="UInt64">
  <UnstructuredGrid>
    <Piece NumberOfPoints="40602" NumberOfCells="20000">
      <CellData Scalars="Scalars_">
        <DataArray type="Float32" Name="Scalars_" format="ascii">
     -1.114727      -1.114722      -1.174109      -1.174113      -1.286355      -1.442779      -1.442774      -1.286350      -1.286341      -1.442765      -1.442751      -1.286327      -1.174085      -1.174099      -1.114713      -1.114699      -1.114680      -1.114657      -1.174043      -1.174067      -1.286308      -1.442733      -1.442709      -1.286285      -1.286256      -1.442680      -1.442646      -1.286222      -1.173980      -1.174014      -1.114628      -1.114594      -1.114554      -1.114509      -1.173895      -1.173941      -1.286182      -1.442607      -1.442561      -1.286137      -1.286085      -1.442510      -1.442451      -1.286027      -1.173785      -1.173843      -1.114457      -1.114399      -1.114333      -1.114261      -1.173647      -1.173720      -1.285962      -1.442386      -1.442313      -1.285889      -1.285808      -1.442233      -1.442144      -1.285719      -1.173477      -1.173566      -1.114180      -1.114091      -1.113992      -1.113884      -1.173271      -1.173379      -1.285621      -1.442045      -1.441937      -1.285513      -1.285394      -1.441819      -1.441689      -1.285265      -1.173023      -1.173152      -1.113765      -1.113636      -1.113494      -1.113339      -1.172726      -1.172881      -1.285123      -1.441547      -1.441393      -1.284968      -1.284800      -1.441224      -1.441041      -1.284616      -1.172374      -1.172557      -1.113170      -1.112987      -1.112787      -1.112571      -1.171958      -1.172174      -1.284417      -1.440841      -1.440624      -1.284200      -1.283966      -1.440390      -1.440135      -1.283711      -1.171469      -1.171723      -1.112336      -1.112081      -1.111806      -1.111508      -1.170896      -1.171193      -1.283436      -1.439860      -1.439562      -1.283139      -1.282817      -1.439240      -1.438892      -1.282470      -1.170227      -1.170574      -1.111187      -1.110839      -1.279171      -1.435589      -1.434968      -1.278551      -1.166310      -1.106922      -1.107542      -1.166930      -1.167508      -1.108120      -1.108659      -1.168047      -1.280289      -1.279749      -1.436168      -1.436708      -1.437211      -1.280791      -1.281258      -1.437679      -1.438114      -1.438518      -1.282095      -1.281692      -1.169450      -1.169853      -1.110465      -1.110062      -1.109628      -1.169016      -1.168549      -1.109161      -1.433590      -1.434302      -1.277887      -1.277176      -1.164936      -1.165647      -1.106259      -1.105549      -1.103978      -1.104789      -1.164177      -1.163365      -1.275603      -1.276416      -1.432828      -1.432014      -1.430218      -1.431145      -1.274736      -1.273811      -1.161576      -1.162499      -1.103112      -1.102189      -1.100157      -1.101205      -1.160591      -1.159543      -1.271776      -1.272826      -1.429230      -1.428177      -1.262352      -1.418722      -1.417029      -1.260665      -1.148453      -1.089076      -1.090757      -1.150136      -1.151726      -1.092346      -1.093847      -1.153228      -1.265451      -1.263946      -1.420322      -1.421832      -1.423257      -1.266871      -1.268210      -1.424601      -1.425866      -1.427057      -1.270659      -1.269472      -1.157242      -1.158427      -1.099043      -1.097858      -1.096599      -1.155982      -1.154646      -1.095263      -1.413348      -1.415239      -1.258882      -1.256999      -1.144795      -1.146674      -1.087299      -1.085422      -1.081352      -1.083441      -1.142812      -1.140720      -1.252914      -1.255011      -1.411352      -1.409245      -1.404688      -1.407026      -1.250704      -1.248376      -1.136196      -1.138517      -1.079150      -1.076833      -1.071830      -1.074394      -1.133754      -1.131187      -1.243353      -1.245928      -1.402227      -1.399640      -4.696502      -5.077654      -5.075163      -4.694061      -4.323115      -3.962737      -3.965089      -4.325511      -4.327778      -3.967315      -3.969420      -4.329921      -4.700995      -4.698812      -5.080009      -5.082235      -5.473401      -5.471129      -5.872066      -5.874384      -6.285191      -6.705911      -6.703488      -6.282821      -6.280313      -6.700923      -6.698209      -6.277658      -5.867014      -5.869610      -5.468725      -5.466183      -5.463497      -5.460660      -5.861371      -5.864269      -6.274853      -6.695339      -6.692307      -6.271890      -6.268762      -6.689107      -6.685731      -6.265463      -5.855088      -5.858313      -5.457668      -5.454513      -5.063736      -4.682863      -4.685888      -5.066824      -5.069754      -5.072532      -4.691481      -4.688759      -4.317915      -4.320585      -3.960253      -3.957632      -3.954869      -4.315100      -4.312134      -3.951959      -3.602950      -3.265972      -3.268781      -3.605808      -3.608522      -3.611096      -3.273981      -3.271449      -2.947587      -2.950079      -2.640933      -2.638476      -2.635888      -2.944961      -2.942196      -2.633164      -2.340866      -2.343554      -2.070479      -2.067824      -1.817191      -1.592868      -1.595473      -1.819818      -1.822316      -1.597950      -1.600303      -1.824689      -2.075399      -2.348532      -2.346107      -2.073002      -2.079830      -2.353014      -2.350833      -2.077674      -1.826941      -1.602537      -1.604656      -1.829077      -1.831102      -1.606665      -1.608567      -1.833019      -2.083809      -2.081874      -2.355080      -2.357036      -2.649545      -2.958812      -2.956805      -2.647565      -2.643264      -2.645473      -2.954684      -2.952443      -3.276382      -3.278657      -3.615849      -3.613537      -3.618038      -3.280811      -3.282848      -3.620108      -3.622064      -3.284773      -3.286592      -3.623910      -3.625653      -3.627295      -3.289926      -3.288308      -2.964195      -2.965790      -2.656432      -2.654857      -2.653187      -2.962502      -2.960710      -2.651417      -2.358886      -2.360634      -2.087369      -2.085639      -1.834832      -1.610368      -1.612070      -1.836547      -1.838167      -1.613678      -1.615197      -1.839696      -2.090545      -2.363842      -2.362285      -2.089003      -2.093369      -2.366694      -2.365311      -2.091999      -1.841138      -1.616629      -1.617979      -1.842496      -1.843776      -1.619250      -1.620446      -1.844979      -2.095871      -2.094658      -2.367996      -2.369220      -2.661870      -2.971295      -2.970042      -2.660632      -2.657917      -2.659316      -2.968710      -2.967294      -3.291451      -3.292886      -3.630299      -3.628843      -3.631669      -3.294236      -3.295505      -3.632956      -3.982476      -4.343199      -4.341871      -3.981169      -3.978299      -3.979778      -4.340457      -4.338953      -4.710192      -4.711722      -5.093166      -5.091608      -5.094630      -4.713161      -4.714511      -5.096004      -5.487439      -5.486038      -5.887279      -5.888707      -6.299813      -6.720849      -6.719361      -6.298356      -6.296803      -6.717776      -6.716088      -6.295150      -5.884138      -5.885757      -5.484546      -5.482958      -5.481268      -5.479474      -5.880583      -5.882414      -6.293391      -6.714291      -6.712380      -6.291521      -6.289535      -6.710351      -6.708196      -6.287426      -5.876573      -5.878637      -5.477567      -5.475544      -5.084337      -5.086320      -4.705003      -4.703057      -4.331945      -3.971409      -3.973287      -4.333856      -4.335657      -3.975058      -3.976727      -4.337355      -4.708565      -5.089951      -5.088190      -4.706837      -4.721007      -5.102612      -5.101686      -4.720097      -4.348694      -3.987886      -3.988770      -4.349590      -4.350428      -3.989595      -3.990366      -4.351210      -4.722651      -4.721858      -5.103477      -5.104284      -5.495865      -5.495045      -5.896455      -5.897290      -6.308563      -6.729775      -6.728909      -6.307713      -6.306800      -6.727978      -6.726981      -6.305823      -5.894600      -5.895560      -5.494165      -5.493223      -5.492215      -5.491136      -5.892475      -5.893573      -6.304776      -6.725914      -6.724771      -6.303656      -6.302458      -6.723548      -6.722242      -6.301178      -5.890046      -5.891300      -5.489983      -5.488752      -5.097294      -4.715778      -4.716967      -5.098503      -5.099636      -5.100696      -4.719122      -4.718080      -4.346709      -4.347734      -3.986942      -3.985932      -3.984853      -4.345614      -4.344445      -3.983703      -3.634165      -3.296697      -3.297815      -3.635298      -3.636361      -3.637357      -3.299846      -3.298863      -2.974611      -2.975581      -2.666106      -2.665147      -2.664124      -2.973575      -2.972471      -2.663032      -2.370371      -2.371451      -2.098082      -2.097012      -1.846111      -1.621571      -1.622628      -1.847174      -1.848171      -1.623620      -1.624551      -1.849107      -2.100029      -2.373414      -2.372464      -2.099087      -2.101737      -2.375136      -2.374304      -2.100911      -1.849983      -1.625423      -1.626240      -1.850804      -1.851572      -1.627004      -1.627719      -1.852290      -2.103232      -2.102510      -2.375915      -2.376642      -2.669365      -2.978874      -2.978132      -2.668631      -2.667005      -2.667845      -2.977339      -2.976489      -3.300765      -3.301625      -3.639159      -3.638288      -3.639973      -3.302428      -3.303179      -3.640733      -3.641442      -3.303878      -3.304531      -3.642103      -3.642718      -3.643290      -3.305704      -3.305139      -2.980813      -2.981372      -2.671839      -2.671284      -2.670689      -2.980211      -2.979566      -2.670050      -2.377322      -2.377955      -2.104536      -2.103906      -1.852960      -1.628386      -1.629009      -1.853586      -1.854170      -1.629590      -1.630132      -1.854713      -2.105669      -2.379096      -2.378546      -2.105122      -2.106650      -2.380084      -2.379608      -2.106177      -1.855219      -1.630636      -1.631105      -1.855690      -1.856128      -1.631541      -1.631946      -1.856534      -2.107498      -2.107090      -2.380526      -2.380937      -2.673693      -2.983243      -2.982826      -2.673280      -2.672355      -2.672834      -2.982377      -2.981893      -3.306230      -3.306719      -3.644317      -3.643822      -3.644776      -3.307173      -3.307594      -3.645202      -3.994892      -4.355800      -4.355363      -3.994461      -3.993496      -3.993997      -4.354892      -4.354384      -4.725874      -4.726389      -5.108080      -5.107557      -5.108565      -4.726867      -4.727310      -5.109015      -5.500673      -5.500216      -5.901716      -5.902181      -6.313541      -6.734847      -6.734366      -6.313069      -6.312559      -6.733847      -6.733287      -6.312009      -5.900675      -5.901216      -5.499723      -5.499192      -5.498620      -5.498004      -5.899467      -5.900093      -6.311417      -6.732684      -6.732034      -6.310780      -6.310093      -6.731335      -6.730583      -6.309356      -5.898068      -5.898793      -5.497342      -5.496630      -5.105036      -5.105736      -4.724081      -4.723392      -4.351938      -3.991084      -3.991753      -4.352617      -4.353250      -3.992377      -3.992957      -4.353837      -4.725319      -5.106994      -5.106388      -4.724722      -14.428350      -15.047562      -15.046469      -14.427284      -13.822621      -13.232292      -13.233305      -13.823660      -13.824624      -13.234245      -13.235118      -13.825519      -14.430257      -14.429339      -15.048576      -15.049518      -15.050391      -14.431108      -14.431897      -15.051200      -15.051948      -15.052641      -14.433302      -14.432627      -13.827829      -13.828488      -13.238013      -13.237371      -13.236677      -13.827118      -13.826349      -13.235928      -12.659621      -12.097177      -12.097890      -12.660353      -12.661030      -12.661656      -12.099162      -12.098550      -11.549648      -11.550245      -11.014597      -11.014014      -11.013385      -11.549004      -11.548307      -11.012705      -11.011971      -11.011181      -11.546745      -11.547556      -12.096406      -12.658833      -12.657981      -12.095576      -12.094682      -12.657064      -12.656077      -12.093719      -11.544933      -11.009413      -11.010329      -11.545873      -9.977711      -10.487722      -10.486828      -9.976836      -9.479089      -8.993231      -8.994066      -9.479943      -9.480737      -8.994843      -8.995564      -9.481474      -9.979278      -9.978523      -10.488554      -10.489326      -10.490043      -9.979977      -9.980626      -10.490706      -10.491322      -10.491891      -9.981783      -9.981227      -9.483379      -9.483924      -8.997959      -8.997427      -8.996852      -9.482792      -9.482158      -8.996232      -8.521851      -8.058673      -8.059267      -8.522457      -8.523020      -8.523540      -8.060328      -8.059817      -7.607500      -7.608000      -7.166260      -7.165770      -7.165241      -7.606961      -7.606379      -7.164671      -7.164056      -7.163393      -7.605075      -7.605751      -8.058032      -8.521195      -8.520491      -8.057343      -8.056600      -8.519732      -8.518914      -8.055799      -7.603565      -7.161914      -7.162681      -7.604348      -8.048306      -8.511252      -8.509828      -8.046913      -7.594869      -7.153400      -7.154734      -7.596232      -7.597507      -7.155982      -7.157148      -7.598699      -8.050828      -8.513832      -8.512586      -8.049609      -8.053028      -8.516081      -8.514996      -8.051966      -7.599813      -7.158238      -7.159256      -7.600852      -7.601821      -7.160205      -7.161090      -7.602724      -8.054941      -8.518037      -8.517094      -8.054018      -10.484831      -10.485865      -9.975896      -9.974886      -9.477183      -9.478170      -8.992333      -8.991369      -8.989223      -8.990334      -9.476124      -9.474987      -9.972638      -9.973802      -10.483720      -10.482528      -10.479880      -10.481250      -9.971391      -9.970054      -9.472464      -9.473769      -8.988032      -8.986757      -8.983935      -8.985394      -9.471067      -9.469574      -9.967093      -9.968623      -10.478415      -10.476847      -12.084655      -12.646779      -12.645042      -12.082963      -11.534446      -10.999184      -11.000791      -11.536095      -11.537636      -11.002294      -11.003697      -11.539075      -12.087711      -12.649916      -12.648401      -12.086236      -12.090373      -12.652646      -12.651329      -12.089089      -11.540419      -11.005007      -11.006228      -11.541671      -11.542837      -11.007367      -11.008427      -11.543923      -12.092683      -12.655015      -12.653872      -12.091569      -15.044026      -15.045292      -14.426138      -14.424905      -13.820301      -13.821504      -13.231203      -13.230032      -13.227422      -13.228773      -13.819010      -13.817623      -14.422156      -14.423579      -15.042667      -15.041206      -15.037959      -15.039639      -14.420630      -14.418992      -13.814540      -13.816135      -13.225971      -13.224418      -13.220970      -13.222753      -13.812831      -13.811002      -14.415360      -14.417238      -15.036160      -15.034231      -14.398107      -15.016512      -15.013274      -14.394955      -13.791134      -13.201626      -13.204612      -13.794202      -13.797086      -13.207418      -13.210055      -13.799794      -14.403852      -14.401069      -15.019556      -15.022413      -15.025095      -14.406462      -14.408910      -15.027609      -15.029964      -15.032169      -14.413351      -14.411204      -13.806953      -13.809045      -13.219065      -13.217028      -13.214852      -13.804720      -13.802336      -13.212530      -12.636823      -12.074955      -12.077157      -12.639083      -12.641202      -12.643186      -12.081154      -12.079221      -11.530800      -11.532683      -10.997464      -10.995628      -10.993669      -11.528789      -11.526644      -10.991579      -10.989351      -10.986979      -11.521923      -11.524358      -12.072608      -12.634413      -12.631845      -12.070108      -12.067448      -12.629112      -12.626205      -12.064618      -11.516577      -10.981772      -10.984456      -11.519332      -9.953095      -10.462491      -10.459877      -9.950548      -9.453435      -8.968185      -8.970608      -9.455918      -9.458256      -8.972888      -8.975032      -9.460453      -9.957746      -9.955492      -10.464951      -10.467261      -10.469433      -9.959862      -9.961849      -10.471470      -10.473380      -10.475170      -9.965458      -9.963712      -9.466274      -9.467978      -8.982376      -8.980713      -8.978938      -9.464456      -9.462518      -8.977047      -8.503099      -8.040339      -8.042143      -8.504947      -8.506680      -8.508306      -8.045424      -8.043837      -7.591861      -7.593414      -7.151976      -7.150457      -7.148837      -7.590205      -7.588441      -7.147112      -7.145276      -7.143322      -7.584566      -7.586564      -8.038417      -8.501133      -8.499040      -8.036373      -8.034201      -8.496815      -8.494452      -8.031893      -7.580189      -7.139044      -7.141248      -7.582443      -8.011400      -8.473446      -8.469722      -8.007769      -7.556644      -7.116052      -7.119509      -7.560186      -7.563543      -7.122786      -7.125890      -7.566722      -8.018099      -8.480315      -8.476974      -8.014841      -8.024095      -8.486461      -8.483475      -8.021181      -7.569730      -7.128827      -7.131605      -7.572574      -7.575261      -7.134229      -7.136707      -7.577797      -8.029444      -8.491942      -8.489281      -8.026846      -10.454154      -10.457101      -9.947843      -9.944972      -9.448000      -9.450798      -8.965614      -8.962886      -8.956932      -8.959994      -9.445034      -9.441893      -9.938704      -9.941929      -10.451030      -10.447719      -10.440505      -10.444214      -9.935290      -9.931680      -9.435051      -9.438567      -8.953691      -8.950265      -8.942822      -8.946645      -9.431334      -9.427411      -9.923835      -9.927864      -10.436585      -10.432446      -12.039360      -12.600245      -12.595621      -12.034863      -11.487625      -10.953595      -10.957850      -11.491999      -11.496138      -10.961877      -10.965687      -11.500052      -12.047640      -12.608759      -12.604621      -12.043616      -12.055033      -12.616357      -12.612667      -12.051443      -11.503753      -10.969288      -10.972688      -11.507246      -11.510543      -10.975897      -10.978923      -11.513650      -12.061611      -12.623116      -12.619837      -12.058419      -15.006172      -15.009830      -14.391603      -14.388043      -13.784409      -13.787873      -13.198452      -13.195082      -13.187712      -13.191504      -13.780733      -13.776834      -14.380258      -14.384265      -15.002289      -14.998169      -14.989178      -14.993802      -14.376010      -14.371512      -13.768329      -13.772703      -13.183694      -13.179440      -13.170184      -13.174940      -13.763701      -13.758810      -14.361722      -14.366754      -14.984284      -14.979110      -9.487737      -9.001691      -9.001888      -9.487938      -9.985888      -10.496089      -10.495878      -9.985682      -9.985456      -10.495648      -10.495398      -9.985210      -9.487276      -9.487516      -9.001474      -9.001240      -8.526752      -8.526982      -8.063700      -8.063474      -7.611084      -7.169287      -7.169504      -7.611306      -7.611509      -7.169703      -7.169886      -7.611695      -8.064096      -8.063907      -8.527194      -8.527387      -8.527564      -8.527725      -8.064428      -8.064270      -7.611865      -7.170053      -7.170206      -7.612020      -7.612162      -7.170345      -7.170472      -7.612291      -8.064704      -8.064572      -8.527873      -8.528007      -9.002521      -9.488585      -9.488444      -9.002384      -9.002069      -9.002234      -9.488291      -9.488123      -9.986076      -9.986248      -10.496458      -10.496282      -10.496618      -9.986405      -9.986547      -10.496764      -11.019585      -11.555350      -11.555197      -11.019435      -11.019091      -11.019271      -11.555029      -11.554845      -12.103873      -12.104061      -12.666676      -12.666483      -12.666852      -12.104234      -12.104390      -12.667012      -13.243502      -13.243338      -13.833944      -13.834113      -14.439068      -15.058551      -15.058374      -14.438895      -14.438706      -15.058181      -15.057968      -14.438498      -13.833557      -13.242959      -13.243157      -13.833760      -13.833093      -13.242505      -13.242743      -13.833335      -14.438271      -15.057734      -15.057480      -14.438022      -14.437750      -15.057200      -15.056896      -14.437453      -13.832538      -13.832827      -13.242247      -13.241964      -12.665511      -12.102924      -12.103193      -12.665787      -12.666039      -12.666271      -12.103666      -12.103440      -11.554422      -11.554644      -11.018893      -11.018678      -11.018442      -11.554182      -11.553919      -11.018186      -11.017905      -11.553632      -11.553320      -11.017601      -11.016910      -11.017269      -11.552980      -11.552612      -12.101586      -12.101964      -12.664528      -12.664141      -12.664884      -12.102311      -12.102631      -12.665211      -13.241656      -13.241321      -13.831879      -13.832222      -14.437130      -15.056565      -15.056204      -14.436778      -14.436395      -15.055811      -15.055385      -14.435978      -13.831099      -13.240560      -13.240956      -13.831505      -13.830178      -13.239662      -13.240129      -13.830657      -14.435526      -15.054920      -15.054418      -14.435035      -14.434503      -15.053872      -15.053281      -14.433927      -13.829097      -13.829659      -13.239156      -13.238607      -12.662236      -12.099727      -12.100249      -12.662771      -12.663265      -12.663721      -12.101176      -12.100732      -11.551778      -11.552212      -11.016519      -11.016094      -11.015635      -11.551307      -11.550797      -11.015136      -10.492417      -10.492904      -9.982773      -9.982298      -9.484426      -8.998451      -8.998906      -9.484892      -9.485321      -8.999327      -8.999714      -9.485718      -9.983618      -10.493768      -10.493353      -9.983212      -10.494149      -9.983991      -9.984335      -10.494502      -10.494825      -10.495124      -9.984943      -9.984652      -9.486730      -9.487014      -9.000983      -9.000705      -9.000401      -9.486420      -9.486083      -9.000072      -8.525608      -8.062353      -8.062670      -8.525931      -8.526228      -8.526501      -8.063228      -8.062961      -7.610580      -7.610843      -7.169050      -7.168792      -7.168512      -7.610295      -7.609985      -7.168208      -7.609284      -7.167520      -7.167878      -7.609649      -8.062011      -8.525258      -8.524879      -8.061639      -8.061235      -8.524467      -8.524022      -8.060800      -7.608462      -7.608890      -7.167133      -7.166714      -6.735292      -6.735703      -6.314383      -6.313978      -5.902610      -5.501096      -5.501487      -5.903008      -5.903376      -5.501849      -5.502183      -5.903715      -6.315102      -6.736435      -6.736084      -6.314756      -6.736759      -6.315420      -6.315713      -6.737058      -6.737333      -6.737586      -6.316233      -6.315984      -5.904583      -5.904828      -5.503279      -5.503038      -5.502776      -5.904317      -5.904028      -5.502491      -5.110805      -4.729075      -4.729351      -5.111085      -5.111343      -5.111581      -4.729840      -4.729606      -4.358065      -4.358296      -3.997357      -3.997129      -3.996881      -4.357813      -4.357541      -3.996611      -4.356925      -3.996003      -3.996320      -4.357245      -4.728776      -5.110501      -5.110172      -4.728451      -4.728100      -5.109816      -5.109431      -4.727720      -4.356205      -4.356579      -3.995661      -3.995292      -3.645596      -3.307984      -3.308346      -3.645962      -3.646300      -3.646612      -3.308990      -3.308680      -2.984319      -2.984625      -2.675065      -2.674761      -2.674432      -2.983988      -2.983629      -2.674077      -2.381317      -2.381670      -2.108227      -2.107877      -1.856911      -1.632321      -1.632670      -1.857260      -1.857584      -1.632992      -1.633291      -1.857883      -2.108853      -2.108552      -2.381997      -2.382299      -2.382578      -2.382836      -2.109388      -2.109131      -1.858160      -1.633567      -1.633821      -1.858415      -1.858651      -1.634057      -1.634274      -1.858869      -2.109843      -2.109624      -2.383074      -2.383294      -2.676065      -2.675845      -2.985411      -2.985633      -3.310006      -3.647639      -3.647412      -3.309782      -3.309539      -3.647167      -3.646901      -3.309275      -2.984909      -2.675346      -2.675605      -2.985170      -2.986198      -2.676626      -2.676784      -2.986356      -3.310735      -3.648374      -3.648213      -3.310575      -3.310401      -3.648038      -3.647846      -3.310212      -2.985837      -2.986026      -2.676455      -2.676268      -2.383495      -2.383681      -2.110228      -2.110044      -1.859069      -1.634473      -1.634657      -1.859253      -1.859422      -1.634826      -1.634981      -1.859578      -2.110554      -2.110398      -2.383852      -2.384008      -2.384151      -2.384282      -2.110827      -2.110697      -1.859720      -1.635123      -1.635253      -1.859850      -1.859969      -1.635371      -1.635479      -1.860077      -2.111055      -2.110946      -2.384402      -2.384511      -2.677289      -2.986865      -2.986755      -2.677180      -2.676928      -2.677059      -2.986634      -2.986501      -3.310881      -3.311014      -3.648656      -3.648521      -3.648779      -3.311136      -3.311247      -3.648891      -3.998623      -3.998510      -4.359462      -4.359576      -4.731136      -5.112895      -5.112778      -4.731021      -4.730894      -5.112649      -5.112508      -4.730754      -4.359199      -3.998250      -3.998386      -4.359336      -4.358509      -3.997568      -3.997761      -4.358705      -4.358884      -3.997938      -3.998101      -4.359048      -5.112353      -4.730602      -4.730435      -5.112185      -5.112000      -4.730254      -4.730056      -5.111800      -5.905053      -5.503500      -5.503704      -5.905260      -5.905449      -5.503891      -5.504062      -5.905623      -6.738408      -6.317041      -6.316864      -6.738228      -6.738032      -6.316671      -6.316462      -6.737819      -6.317350      -6.738722      -6.738572      -6.317202      -5.905782      -5.504219      -5.504362      -5.905927      -5.906060      -5.504492      -5.504611      -5.906180      -6.317607      -6.317484      -6.738859      -6.738983      -6.739096      -6.739199      -6.317819      -6.317719      -5.906290      -5.504719      -5.504817      -5.906390      -5.906479      -5.504906      -5.504985      -5.906560      -6.317992      -6.739375      -6.739291      -6.317910      -6.739450      -6.318066      -6.318131      -6.739516      -6.739575      -6.739627      -6.318241      -6.318190      -5.906754      -5.906805      -5.505227      -5.505177      -5.505121      -5.906697      -5.906632      -5.505057      -5.113335      -4.731570      -4.731633      -5.113398      -5.113453      -5.113502      -4.731736      -4.731688      -4.360121      -4.360169      -3.999209      -3.999162      -3.999108      -4.360067      -4.360005      -3.999047      -4.359860      -3.998904      -3.998979      -4.359936      -4.731501      -5.113264      -5.113185      -4.731423      -4.731337      -5.113098      -5.113001      -4.731242      -4.359680      -4.359775      -3.998819      -3.998726      -3.648993      -3.311348      -3.311440      -3.649085      -3.649169      -3.649244      -3.311597      -3.311523      -2.987139      -2.987213      -2.677635      -2.677561      -2.677479      -2.987056      -2.986965      -2.677389      -2.384610      -2.384700      -2.111243      -2.111154      -1.860176      -1.635578      -1.635667      -1.860265      -1.860346      -1.635748      -1.635820      -1.860419      -2.111398      -2.111325      -2.384782      -2.384855      -2.384921      -2.384979      -2.111522      -2.111463      -1.860484      -1.635886      -1.635944      -1.860543      -1.860595      -1.635996      -1.636041      -1.860640      -2.111619      -2.111574      -2.385031      -2.385077      -2.677858      -2.677812      -2.987391      -2.987437      -3.311824      -3.649472      -3.649425      -3.311777      -3.311724      -3.649372      -3.649312      -3.311664      -2.987279      -2.677701      -2.677760      -2.987338      -2.987541      -2.677962      -2.677986      -2.987566      -3.311953      -3.649602      -3.649578      -3.311928      -3.311899      -3.649548      -3.649513      -3.311864      -2.987478      -2.987512      -2.677933      -2.677898      -2.385117      -2.385152      -2.111693      -2.111659      -1.860680      -1.636081      -1.636115      -1.860714      -1.860743      -1.636144      -1.636167      -1.860766      -2.111746      -2.111722      -2.385181      -2.385204      -2.38522