<VTKFile type="UnstructuredGrid" version="1.0" byte_order="LittleEndian" header_type="UInt64">
  <UnstructuredGrid>
    <Piece NumberOfPoints="40602" NumberOfCells="20000">
      <CellData Scalars="Scalars_">
        <DataArray type="Float32" Name="Scalars_" format="ascii">
     8.337183      8.337184      8.294909      8.294907      8.217743      8.114771      8.114772      8.217745      8.217748      8.114775      8.114779      8.217752      8.294915      8.294911      8.337187      8.337192      8.337197      8.337205      8.294929      8.294921      8.217758      8.114785      8.114792      8.217765      8.217774      8.114801      8.114812      8.217785      8.294949      8.294938      8.337214      8.337225      8.337237      8.337253      8.294976      8.294961      8.217797      8.114824      8.114839      8.217812      8.217829      8.114855      8.114874      8.217848      8.295012      8.294992      8.337269      8.337288      8.337310      8.337334      8.295057      8.295033      8.217869      8.114895      8.114919      8.217893      8.217919      8.114945      8.114975      8.217949      8.295115      8.295084      8.337361      8.337391      8.337425      8.337462      8.295185      8.295148      8.217982      8.115008      8.115045      8.218019      8.218060      8.115086      8.115129      8.218105      8.295271      8.295226      8.337503      8.337549      8.337599      8.337655      8.295377      8.295321      8.218155      8.115179      8.115233      8.218210      8.218270      8.115294      8.115359      8.218337      8.295504      8.295438      8.337715      8.337783      8.337856      8.337936      8.295657      8.295577      8.218410      8.115432      8.115511      8.218490      8.218576      8.115598      8.115693      8.218672      8.295841      8.295745      8.338024      8.338120      8.338225      8.338341      8.296061      8.295946      8.218777      8.115797      8.115910      8.218890      8.219014      8.116034      8.116168      8.219150      8.296321      8.296185      8.338466      8.338601      8.220480      8.117494      8.117751      8.220737      8.297915      8.340199      8.339940      8.297656      8.297417      8.339701      8.339478      8.297195      8.220021      8.220242      8.117256      8.117037      8.116834      8.219817      8.219629      8.116646      8.116473      8.116314      8.219296      8.219456      8.296629      8.296468      8.338750      8.338910      8.339085      8.296803      8.296991      8.339273      8.118326      8.118028      8.221016      8.221315      8.298493      8.298193      8.340479      8.340779      8.341452      8.341104      8.298817      8.299165      8.221985      8.221638      8.118649      8.118995      8.119766      8.119367      8.222358      8.222757      8.299939      8.299539      8.341826      8.342228      8.343120      8.342658      8.300369      8.300830      8.223647      8.223187      8.120194      8.120654      8.227877      8.124884      8.125656      8.228648      8.305834      8.348126      8.347355      8.305062      8.304337      8.346629      8.345946      8.303655      8.226468      8.227150      8.124157      8.123475      8.122834      8.225828      8.225228      8.122234      8.121672      8.121146      8.224139      8.224666      8.301850      8.301323      8.343613      8.344141      8.344704      8.302413      8.303014      8.345305      8.127350      8.126478      8.229468      8.230338      8.307524      8.306654      8.348947      8.349816      8.351715      8.350739      8.308446      8.309422      8.232239      8.231261      8.128274      8.129254      8.131389      8.130291      8.233274      8.234367      8.311548      8.310456      8.352748      8.353840      8.356212      8.354994      8.312703      8.313921      8.236744      8.235524      8.132547      8.133772      6.302657      6.106863      6.107942      6.303723      6.496091      6.684906      6.683860      6.495035      6.494041      6.682876      6.681952      6.493108      6.300711      6.301653      6.105850      6.104898      5.905753      5.906713      5.704284      5.703313      5.497591      5.288571      5.289561      5.498571      5.499616      5.290618      5.291744      5.500730      5.706420      5.705318      5.907737      5.908827      5.909986      5.911218      5.708838      5.707592      5.501915      5.292943      5.294218      5.503176      5.504515      5.295573      5.297012      5.505935      5.711564      5.710161      5.912525      5.913911      6.112967      6.308692      6.307338      6.111598      6.110306      6.109088      6.304858      6.306061      6.498404      6.497213      6.686016      6.687194      6.688442      6.499666      6.501004      6.689764      6.874758      7.055665      7.054371      6.873451      6.872216      6.871050      7.051995      7.053149      7.229531      7.228388      7.399575      7.400708      7.401906      7.230742      7.232021      7.403174      7.568210      7.566954      7.724623      7.725869      7.874417      8.011477      8.010246      7.873180      7.872009      8.009082      8.007980      7.870901      7.722329      7.564642      7.565766      7.723444      7.720282      7.562581      7.563581      7.721276      7.869854      8.006939      8.005956      7.868867      7.867935      8.005029      8.004154      7.867057      7.718462      7.719345      7.561638      7.560750      7.395653      7.224434      7.225335      7.396547      7.398506      7.397497      7.226293      7.227310      7.050907      7.049881      6.868916      6.869951      6.867941      7.048915      7.048006      6.867024      6.866164      7.047153      7.046351      6.865356      6.864599      6.863890      7.044896      7.045600      7.222045      7.221346      7.392585      7.393281      7.394022      7.222792      7.223587      7.394812      7.559915      7.559129      7.716851      7.717632      7.866230      8.003330      8.002556      7.865453      7.864723      8.001828      8.001144      7.864037      7.715429      7.557701      7.558392      7.716117      7.714180      7.556446      7.557053      7.714784      7.863394      8.000503      7.999902      7.862792      7.862228      7.999340      7.998813      7.861701      7.713086      7.713614      7.555878      7.555348      7.390222      7.218970      7.219505      7.390754      7.391934      7.391324      7.220078      7.220691      7.044237      7.043620      6.862607      6.863226      6.862027      7.043044      7.042507      6.861487      6.676373      6.487488      6.488035      6.676917      6.678124      6.677500      6.488621      6.489250      6.296820      6.296187      6.100336      6.100974      6.099742      6.295597      6.295047      6.099189      5.899995      5.900552      5.698068      5.697507      5.491734      5.282663      5.283232      5.492299      5.492906      5.283844      5.284502      5.493558      5.699318      5.698670      5.901151      5.901793      5.902482      5.903219      5.700756      5.700012      5.494259      5.285208      5.285965      5.495009      5.495813      5.286776      5.287643      5.496672      5.702404      5.701552      5.904008      5.904852      6.104006      6.103170      6.298999      6.299827      6.492232      6.681083      6.680269      6.491411      6.490642      6.679506      6.678792      6.489923      6.297498      6.101657      6.102388      6.298223      6.292474      6.096604      6.096958      6.292827      6.485278      6.674174      6.673824      6.484927      6.484602      6.673500      6.673200      6.484302      6.291847      6.292149      6.096277      6.095975      5.896767      5.897069      5.694567      5.694263      5.488472      5.279383      5.279689      5.488777      5.489108      5.280021      5.280380      5.489465      5.695252      5.694896      5.897398      5.897752      5.898136      5.898550      5.696053      5.695637      5.489852      5.280769      5.281190      5.490270      5.490722      5.281644      5.282135      5.491209      5.696986      5.696502      5.898996      5.899477      6.098674      6.294535      6.294059      6.098196      6.097751      6.097339      6.293207      6.293617      6.486066      6.485657      6.674551      6.674958      6.675396      6.486506      6.486979      6.675868      6.860983      7.042006      7.041539      6.860514      6.860078      6.859673      7.040701      7.041104      7.217574      7.217172      7.388431      7.388832      7.389262      7.218007      7.218471      7.389725      7.554853      7.554392      7.712133      7.712593      7.861209      7.998322      7.997862      7.860750      7.860322      7.997434      7.997036      7.859923      7.711305      7.553563      7.553963      7.711704      7.710589      7.552846      7.553191      7.710934      7.859551      7.996664      7.996318      7.859207      7.858886      7.995997      7.995699      7.858588      7.709972      7.710269      7.552526      7.552229      7.387095      7.215833      7.216131      7.387392      7.388058      7.387713      7.216452      7.216798      7.040326      7.039979      6.858948      6.859297      6.858624      7.039656      7.039358      6.858326      6.858049      7.039083      7.038828      6.857794      6.857559      6.857342      7.038376      7.038593      7.215069      7.214853      7.386115      7.386331      7.386566      7.215304      7.215558      7.386820      7.551954      7.551700      7.709442      7.709697      7.858313      7.995423      7.995167      7.858057      7.857821      7.994930      7.994710      7.857603      7.708989      7.551248      7.551465      7.709206      7.708602      7.550862      7.551047      7.708787      7.857401      7.994508      7.994321      7.857215      7.857044      7.994149      7.993991      7.856886      7.708274      7.708432      7.550693      7.550536      7.385405      7.214145      7.214300      7.385561      7.385915      7.385730      7.214469      7.214653      7.038177      7.037993      6.856959      6.857142      6.856790      7.037825      7.037670      6.856635      6.671506      6.482606      6.482761      6.671661      6.672014      6.671830      6.482930      6.483114      6.290658      6.290473      6.094599      6.094783      6.094430      6.290304      6.290149      6.094276      5.895066      5.895221      5.692715      5.692561      5.486768      5.277677      5.277831      5.486923      5.487092      5.277999      5.278184      5.487276      5.693068      5.692884      5.895390      5.895574      5.895774      5.895992      5.693487      5.693269      5.487476      5.278385      5.278604      5.487695      5.487933      5.278842      5.279101      5.488192      5.693983      5.693725      5.896230      5.896487      6.095696      6.095439      6.291312      6.291569      6.484024      6.672923      6.672667      6.483768      6.483531      6.672431      6.672214      6.483314      6.290858      6.094984      6.095202      6.291075      1.709502      1.439341      1.439619      1.709778      1.975520      2.236939      2.236667      1.975246      1.974996      2.236417      2.236190      1.974767      1.709020      1.709250      1.439088      1.438857      1.438645      1.708810      1.708618      1.438453      1.438277      1.438118      1.708284      1.708443      1.974193      1.974035      2.235461      2.235618      2.235791      1.974367      1.974558      2.235981      2.493170      2.746209      2.746021      2.492981      2.492808      2.492651      2.745692      2.745849      2.994823      2.994667      3.239657      3.239813      3.239985      2.994995      2.995183      3.240172      3.240377      3.240602      2.995614      2.995389      2.746416      2.493377      2.493604      2.746642      2.746889      2.493852      2.494123      2.747158      2.996128      3.241115      3.240847      2.995860      3.719188      3.481930      3.482197      3.719454      3.952959      4.182787      4.182523      3.952694      3.952451      4.182281      4.182059      3.952228      3.718721      3.718944      3.481686      3.481462      3.481257      3.718516      3.718329      3.481070      3.480899      3.480743      3.718003      3.718158      3.951667      3.951512      4.181344      4.181499      4.181669      3.951838      3.952024      4.181855      4.408080      4.630765      4.630579      4.407894      4.407724      4.407569      4.630255      4.630410      4.849620      4.849465      5.065256      5.065410      5.065579      4.849789      4.849974      5.065763      5.065965      5.066185      4.850396      4.850176      4.630967      4.408283      4.408504      4.631188      4.631429      4.408746      4.409009      4.631691      4.850897      5.066684      5.066423      4.850636      4.634275      4.411606      4.412109      4.634775      4.853964      5.069733      5.069240      4.853467      4.853007      5.068782      5.068359      4.852581      4.633384      4.410710      4.411140      4.633812      4.632623      4.409945      4.410312      4.632988      4.852188      5.067968      5.067607      4.851824      4.851490      5.067274      5.066967      4.851181      4.631977      4.409296      4.409607      4.632287      3.482804      3.482488      3.719743      3.720058      3.953562      3.953248      4.183075      4.183388      4.184096      4.183727      3.953903      3.954273      3.720773      3.720401      3.483149      3.483523      3.484369      3.483929      3.721177      3.721615      3.955111      3.954675      4.184496      4.184929      4.185904      4.185397      3.955582      3.956091      3.722602      3.722089      3.484846      3.485363      2.749853      2.496835      2.497367      2.750381      2.999330      3.244298      3.243778      2.998806      2.998323      3.243297      3.242854      2.997877      2.748917      2.495892      2.496344      2.749366      2.748123      2.495093      2.495476      2.748503      2.997466      3.242446      3.242070      2.997088      2.996741      3.241724      3.241406      2.996421      2.747453      2.494419      2.494742      2.747774      1.440252      1.439922      1.710079      1.710407      1.976146      1.975820      2.237237      2.237561      2.238300      2.237915      1.976502      1.976890      1.711157      1.710766      1.440613      1.441007      1.441901      1.441435      1.711582      1.712044      1.977772      1.977313      2.238719      2.239175      2.240206      2.239670      1.978270      1.978811      1.713092      1.712547      1.442407      1.442957      1.718385      1.448301      1.449324      1.719397      1.985055      2.246390      2.245399      1.984054      1.983124      2.244479      2.243624      1.982260      1.716573      1.717445      1.447351      1.446470      1.445654      1.715765      1.715016      1.444898      1.444199      1.443553      1.713683      1.714323      1.980031      1.979397      2.240787      2.241416      2.242097      1.980718      1.981460      2.242831      2.499969      2.752960      2.752239      2.499241      2.498567      2.497943      2.750952      2.751570      3.000510      2.999897      3.244860      3.245468      3.246125      3.001173      3.001887      3.246833      3.247596      3.248418      3.003487      3.002658      2.753738      2.500755      2.501601      2.754575      2.755477      2.502512      2.503491      2.756446      3.005338      3.250250      3.249301      3.004380      3.727518      3.490321      3.491260      3.728447      3.961885      4.191648      4.190737      3.960966      3.960108      4.189888      4.189097      3.959310      3.725846      3.726652      3.489447      3.488633      3.487877      3.725097      3.724401      3.487175      3.486524      3.485921      3.723156      3.723755      3.957236      3.956642      4.186450      4.187041      4.187676      3.957877      3.958567      4.188361      4.414548      4.637196      4.636522      4.413869      4.413238      4.412652      4.635314      4.635896      4.855077      4.854499      5.070265      5.070839      5.071455      4.855699      4.856367      5.072119      5.072831      5.073594      4.857855      4.857085      4.637920      4.415278      4.416062      4.638697      4.639530      4.416903      4.417805      4.640423      4.859565      5.075288      5.074412      4.858681      4.648627      4.426104      4.427618      4.650121      4.869151      5.084764      5.083307      4.867675      4.866287      5.081935      5.080645      4.864980      4.645898      4.423341      4.424680      4.647220      4.643492      4.420907      4.422085      4.644657      4.863753      5.079432      5.078293      4.862602      4.861522      5.077226      5.076225      4.860511      4.641379      4.418770      4.419803      4.642401      3.493346      3.492267      3.729443      3.730510      3.963926      3.962871      4.192624      4.193667      4.195975      4.194783      3.965055      3.966261      3.732872      3.731652      3.494501      3.495735      3.498461      3.497054      3.734174      3.735563      3.968920      3.967548      4.197247      4.198601      4.201578      4.200044      3.970380      3.971935      3.738619      3.737043      3.499960      3.501556      2.765468      2.512625      2.514311      2.767131      3.015891      3.260673      3.259055      3.014251      3.012712      3.257536      3.256111      3.011269      2.762447      2.509563      2.511045      2.763909      2.759798      2.506882      2.508178      2.761078      3.009917      3.254776      3.253527      3.008652      3.007471      3.252359      3.251268      3.006367      2.757486      2.504543      2.505672      2.758602      1.451608      1.450425      1.720485      1.721654      1.987286      1.986130      2.247453      2.248595      2.251132      2.249820      1.988525      1.989853      1.724253      1.722908      1.452878      1.454240      1.457262      1.455699      1.725694      1.727235      1.992795      1.991275      2.252535      2.254036      2.257348      2.255638      1.994420      1.996153      1.730640      1.728882      1.458932      1.460716      3.950498      4.180329      4.180281      3.950449      3.716941      3.479682      3.479730      3.716989      3.717043      3.479783      3.479843      3.717102      3.950611      3.950552      4.180383      4.180443      4.406669      4.406609      4.629295      4.629355      4.848565      5.064355      5.064295      4.848505      4.848451      5.064240      5.064191      4.848402      4.629193      4.629241      4.406555      4.406507      4.406463      4.406423      4.629109      4.629148      4.848358      5.064147      5.064107      4.848319      4.848283      5.064071      5.064039      4.848250      4.629042      4.629074      4.406387      4.406355      4.180130      3.950300      3.950331      4.180162      4.180237      4.180198      3.950366      3.950406      3.716897      3.716858      3.479599      3.479638      3.479564      3.716823      3.716791      3.479532      3.238447      2.993457      2.993488      3.238478      3.238553      3.238513      2.993523      2.993562      2.744587      2.744548      2.491507      2.491545      2.491472      2.744513      2.744482      2.491441      2.234248      2.234280      1.972851      1.972820      1.707067      1.436896      1.436928      1.707098      1.707133      1.436962      1.437001      1.707171      1.972925      2.234353      2.234314      1.972886      1.973016      2.234444      2.234396      1.972968      1.707215      1.437045      1.437093      1.707263      1.707316      1.437146      1.437206      1.707375      1.973128      1.973069      2.234498      2.234557      2.491749      2.744791      2.744731      2.491690      2.491637      2.491589      2.744630      2.744678      2.993654      2.993605      3.238596      3.238644      3.238698      2.993707      2.993766      3.238757      3.238822      2.993831      2.993904      3.238894      3.239063      3.238974      2.993984      2.994072      2.745096      2.745008      2.491966      2.492055      2.491887      2.744928      2.744856      2.491814      2.234622      2.234694      1.973266      1.973194      1.707441      1.437271      1.437344      1.707514      1.707594      1.437425      1.437514      1.707683      1.973435      2.234863      2.234775      1.973347      1.973641      2.235068      2.234961      1.973533      1.707781      1.437613      1.437721      1.707889      1.708009      1.437841      1.437973      1.708140      1.973891      1.973760      2.235187      2.235317      2.492508      2.745549      2.745419      2.492378      2.492260      2.492152      2.745194      2.745301      2.994276      2.994169      3.239160      3.239267      3.239385      2.994394      2.994524      3.239515      3.480601      3.480471      3.717731      3.717860      3.951370      4.181201      4.181072      3.951240      3.951122      4.180954      4.180847      3.951015      3.717506      3.480246      3.480353      3.717613      3.480149      3.717409      3.717320      3.480061      3.479981      3.479908      3.717168      3.717240      3.950749      3.950677      4.180509      4.180581      4.180662      3.950830      3.950918      4.180750      4.406976      4.629663      4.629574      4.406888      4.406807      4.406734      4.629421      4.629494      4.848704      4.848631      5.064421      5.064494      5.064575      4.848784      4.848873      5.064663      4.849077      5.064868      5.064761      4.848970      4.629760      4.407073      4.407180      4.629867      4.629984      4.407298      4.407427      4.630114      4.849324      4.849195      5.064986      5.065114      5.277535      5.277406      5.486498      5.486627      5.692419      5.894925      5.894795      5.692290      5.692172      5.894677      5.894569      5.692064      5.486273      5.277181      5.277288      5.486380      5.277084      5.486175      5.486086      5.276995      5.276914      5.276841      5.485931      5.486005      5.691795      5.691721      5.894225      5.894300      5.894381      5.691877      5.691966      5.894471      6.093679      6.289552      6.289462      6.093589      6.093507      6.093433      6.289305      6.289380      6.481835      6.481760      6.670660      6.670735      6.670817      6.481917      6.482008      6.670908      6.482215      6.671116      6.671007      6.482107      6.289650      6.093778      6.093886      6.289759      6.289878      6.094004      6.094134      6.290008      6.482464      6.482334      6.671235      6.671365      6.856493      7.037527      7.037397      6.856363      6.856244      6.856135      7.037169      7.037278      7.213752      7.213642      7.384900      7.385010      7.385131      7.213871      7.214002      7.385262      7.550392      7.550261      7.707998      7.708130      7.856741      7.993845      7.993711      7.856607      7.856485      7.993588      7.993476      7.856373      7.707765      7.707876      7.550139      7.550029      7.549927      7.549834      7.707569      7.707663      7.856271      7.993372      7.993278      7.856177      7.856091      7.993192      7.993113      7.856013      7.707406      7.707484      7.549750      7.549673      7.384546      7.384623      7.213367      7.213290      7.036819      6.855787      6.855862      7.036894      7.036977      6.855945      6.856036      7.037068      7.213542      7.384799      7.384707      7.213450      7.213100      7.384355      7.384303      7.213048      7.036579      6.855548      6.855599      7.036630      7.036687      6.855656      6.855718      7.036749      7.213221      7.213158      7.384413      7.384477      7.549602      7.549538      7.707271      7.707335      7.855941      7.993042      7.992976      7.855876      7.855817      7.992916      7.992862      7.855763      7.707159      7.707212      7.549480      7.549427      7.549379      7.549335      7.707067      7.707110      7.855715      7.992813      7.992769      7.855670      7.855631      7.992729      7.992692      7.855595      7.706991      7.707027      7.549296      7.549261      7.384139      7.212886      7.212920      7.384173      7.384255      7.384212      7.212959      7.213001      7.036532      7.036489      6.855460      6.855502      6.855422      7.036451      7.036417      6.855388      6.670263      6.670297      6.481399      6.481366      6.288912      6.093041      6.093075      6.288945      6.288982      6.093112      6.093153      6.289024      6.481478      6.670376      6.670335      6.481436      6.481692      6.670591      6.670530      6.481630      6.481575      6.670474      6.670423      6.481524      6.093198      6.289069      6.289120      6.093248      6.093304      6.289176      6.289237      6.093365      5.691655      5.894158      5.894097      5.691594      5.691539      5.894042      5.893991      5.691489      5.276610      5.485700      5.485749      5.276659      5.276714      5.485804      5.485864      5.276774      5.485614      5.276525      5.276566      5.485655      5.691444      5.893946      5.893906      5.691403      5.691367      5.893869      5.893836      5.691334      5.485546      5.485578      5.276489      5.276457      5.276428      5.276402      5.485490      5.485516      5.691305      5.893806      5.893779      5.691278      5.691255      5.893755      5.893734      5.691234      5.485446      5.276358      5.276379      5.485466      5.276340      5.485427      5.485411      5.276323      5.276309      5.276297      5.485384      5.485397      5.691184      5.691172      5.893672      5.893685      5.893699      5.691198      5.691215      5.893716      6.092921      6.288790      6.288774      6.092904      6.092889      6.092876      6.288746      6.288759      6.481211      6.481198      6.670095      6.670108      6.670123      6.481226      6.481243      6.670140      6.481284      6.670181      6.670159      6.481262      6.288809      6.092940      6.092961      6.288831      6.288855      6.092985      6.093011      6.288882      6.481335      6.481308      6.670206      6.670233      6.855357      7.036386      7.036358      6.855330      6.855305      6.855283      7.036311      7.036334      7.212801      7.212779      7.384031      7.384053      7.384079      7.212826      7.212854      7.384107      7.549229      7.549201      7.706930      7.706959      7.855562      7.992660      7.992630      7.855533      7.855507      7.992604      7.992580      7.855484      7.706881      7.706904      7.549175      7.549152      7.549132      7.549114      7.706842      7.706861      7.855463      7.992559      7.992540      7.855444      7.855428      7.992524      7.992510      7.855414      7.706812      7.706826      7.549098      7.549084      7.383963      7.383977      7.212726      7.212712      7.036245      6.855218      6.855231      7.036259      7.036274      6.855247      6.855264      7.036292      7.212759      7.384010      7.383993      7.212741      7.212682      7.383933      7.383926      7.212676      7.036209      6.855182      6.855189      7.036216      7.036224      6.855197      6.855207      7.036234      7.212701      7.212691      7.383941      7.383952      7.549072      7.549062      7.706790      7.706800      7.855402      7.992497      7.992487      7.855391      7.855382      7.992478      7.992471      7.855375      7.706774      7.706781      7.549053      7.549046      7.549041      7.549037      7.706764      7.706769      7.855370      7.992465      7.992461      7.855365      7.855362      7.992458      7.992456      7.855361      7.706760      7.706761      7.549034      7.549033      7.383913      7.212662      7.212664      7.383914      7.383921      7.383916      7.212666      7.212670      7.036204      7.036200      6.855173      6.855177      6.855170      7.036197      7.036196      6.855169      6.670046      6.670048      6.481152      6.481150      6.288698      6.092829      6.092831      6.288700      6.288702      6.092833      6.092837      6.288706      6.481158      6.670054      6.670050      6.481154      6.481187      6.670084      6.670074      6.481177      6.481170      6.670066      6.670059      6.481163      6.092842      6.288711      6.288717      6.092848      6.092856      6.288725      6.288735      6.092865      5.691161      5.893661      5.893651      5.691152      5.691144      5.893644      5.893638      5.691137      5.276263      5.485350      5.485356      5.276269      5.276277      5.485364      5.485373      5.276286      5.485342      5.276255      5.276258      5.485345      5.691133      5.893632      5.893629      5.691129      5.691126      5.893626      5.893625      5.691125      5.485338      5.485339      5.276252      5.276251      5.063835      4.848047      4.848048      5.063836      5.063842      5.063838      4.848051      4.848054      4.628846      4.628843      4.406158      4.406161      4.406156      4.628840      4.628839      4.406154      4.179930      4.179931      3.950101      3.950100      3.716592      3.479334      3.479335      3.716594      3.716596      3.479338      3.479341      3.716599      3.950107      3.950103      4.179934      4.179937      4.179942      4.179948      3.950117      3.950111      3.716604      3.479346      3.479352      3.716610      3.716617      3.479359      3.479368      3.716626      3.950134      3.950125      4.179955      4.179964      4.406188      4.406179      4.628865      4.628873      4.848082      5.063869      5.063860      4.848073      4.848065      5.063853      5.063847      4.848059      4.628851      4.406166      4.406172      4.628857      4.628987      4.406301      4.406327      4.629013      4.848222      5.064010      5.063984      4.848196      4.848173      5.063961      5.063941    