<VTKFile type="UnstructuredGrid" version="1.0" byte_order="LittleEndian" header_type="UInt64">
  <UnstructuredGrid>
    <Piece NumberOfPoints="40602" NumberOfCells="20000">
      <CellData Scalars="Scalars_">
        <DataArray type="Float32" Name="Scalars_" format="ascii">
     22.682564      22.682564      22.656057      22.656057      22.612108      22.560154      22.560154      22.612108      22.612108      22.560154      22.560154      22.612110      22.656059      22.656057      22.682564      22.682566      22.682566      22.682568      22.656061      22.656059      22.612110      22.560156      22.560156      22.612112      22.612112      22.560158      22.560160      22.612114      22.656063      22.656061      22.682570      22.682570      22.682573      22.682575      22.656069      22.656065      22.612116      22.560162      22.560163      22.612118      22.612122      22.560165      22.560169      22.612123      22.656075      22.656071      22.682577      22.682581      22.682585      22.682589      22.656082      22.656078      22.612127      22.560173      22.560177      22.612131      22.612137      22.560181      22.560186      22.612141      22.656092      22.656086      22.682594      22.682600      22.682606      22.682613      22.656105      22.656097      22.612148      22.560192      22.560198      22.612154      22.612162      22.560205      22.560213      22.612169      22.656122      22.656113      22.682621      22.682629      22.682640      22.682650      22.656141      22.656132      22.612179      22.560223      22.560232      22.612190      22.612202      22.560244      22.560257      22.612215      22.656168      22.656155      22.682663      22.682676      22.682692      22.682709      22.656200      22.656183      22.612230      22.560270      22.560286      22.612246      22.612265      22.560305      22.560324      22.612284      22.656239      22.656218      22.682728      22.682749      22.682772      22.682798      22.656288      22.656261      22.612307      22.560345      22.560369      22.612331      22.612358      22.560396      22.560427      22.612389      22.656345      22.656315      22.682827      22.682858      22.612705      22.560736      22.560799      22.612768      22.656733      22.683249      22.683184      22.656668      22.656609      22.683123      22.683067      22.656553      22.612593      22.612646      22.560678      22.560625      22.560577      22.612543      22.612499      22.560534      22.560495      22.560459      22.612423      22.612459      22.656418      22.656380      22.682892      22.682930      22.682972      22.656460      22.656504      22.683018      22.560942      22.560867      22.612839      22.612913      22.656881      22.656803      22.683321      22.683399      22.683577      22.683483      22.656965      22.657057      22.613087      22.612997      22.561022      22.561110      22.561308      22.561205      22.613182      22.613289      22.657261      22.657154      22.683676      22.683784      22.684027      22.683901      22.657377      22.657501      22.613523      22.613401      22.561419      22.561541      22.614691      22.562691      22.562906      22.614908      22.658901      22.685436      22.685215      22.658682      22.658476      22.685007      22.684813      22.658283      22.614296      22.614487      22.562489      22.562300      22.562124      22.614119      22.613953      22.561962      22.561811      22.561670      22.613657      22.613800      22.657780      22.657635      22.684162      22.684307      22.684464      22.657936      22.658104      22.684633      22.563385      22.563139      22.615143      22.615391      22.659389      22.659138      22.685675      22.685926      22.686483      22.686197      22.659657      22.659943      22.615942      22.615658      22.563650      22.563931      22.564548      22.564230      22.616243      22.616564      22.660570      22.660248      22.686789      22.687113      22.687822      22.687458      22.660913      22.661276      22.617266      22.616905      22.564888      22.565248      21.929049      21.870420      21.870678      21.929308      21.987797      22.046152      22.045889      21.987535      21.987291      22.045643      22.045414      21.987064      21.928581      21.928806      21.870180      21.869957      21.811186      21.811407      21.752480      21.752262      21.693180      21.633940      21.634153      21.693398      21.693630      21.634384      21.634632      21.693880      21.752968      21.752716      21.811644      21.811899      21.812174      21.812468      21.753532      21.753241      21.694151      21.634899      21.635187      21.694441      21.694750      21.635496      21.635826      21.695084      21.754179      21.753845      21.812782      21.813118      21.871904      21.930544      21.930202      21.871567      21.871250      21.870955      21.929586      21.929884      21.988377      21.988077      22.046434      22.046736      22.047060      21.988699      21.989040      22.047403      22.105642      22.163769      22.163422      22.105295      22.104971      22.104668      22.162790      22.163095      22.221121      22.220814      22.278753      22.279062      22.279392      22.221449      22.221798      22.279743      22.337605      22.337254      22.394997      22.395351      22.452856      22.509773      22.509417      22.452499      22.452166      22.509079      22.508762      22.451851      22.394350      22.336611      22.336922      22.394663      22.393782      22.336044      22.336319      22.394056      22.451555      22.508465      22.508186      22.451277      22.451017      22.507925      22.507679      22.450775      22.393284      22.393524      22.335789      22.335550      22.277702      22.219770      22.220005      22.277939      22.278463      22.278193      22.220257      22.220526      22.162504      22.162235      22.104118      22.104383      22.103870      22.161985      22.161753      22.103640      22.103424      22.161535      22.161335      22.103224      22.103039      22.102867      22.160973      22.161146      22.219156      22.218981      22.276905      22.277082      22.277275      22.219347      22.219551      22.277481      22.335327      22.335119      22.392849      22.393059      22.450548      22.507450      22.507236      22.450336      22.450138      22.507036      22.506849      22.449953      22.392469      22.334745      22.334927      22.392653      22.392143      22.334423      22.334578      22.392302      22.449783      22.506676      22.506516      22.449623      22.449476      22.506367      22.506227      22.449339      22.391863      22.391998      22.334278      22.334146      22.276312      22.218395      22.218525      22.276443      22.276739      22.276587      22.218666      22.218817      22.160810      22.160662      22.102560      22.102707      22.102425      22.160522      22.160395      22.102299      22.044088      21.985756      21.985878      22.044212      22.044493      22.044348      21.986010      21.986153      21.927681      21.927540      21.868927      21.869066      21.868799      21.927410      21.927290      21.868681      21.809925      21.810041      21.751131      21.751017      21.691954      21.632729      21.632839      21.692064      21.692188      21.632961      21.633093      21.692322      21.751390      21.751255      21.810167      21.810305      21.810453      21.810616      21.751699      21.751539      21.692467      21.633236      21.633390      21.692625      21.692795      21.633560      21.633741      21.692982      21.752060      21.751871      21.810791      21.810982      21.869751      21.869558      21.928179      21.928373      21.986855      22.045200      22.045002      21.986658      21.986477      22.044819      22.044649      21.986309      21.927834      21.869217      21.869381      21.927999      21.926754      21.868158      21.868227      21.926825      21.985281      22.043604      22.043530      21.985209      21.985144      22.043463      22.043402      21.985083      21.926632      21.926689      21.868095      21.868038      21.809296      21.809351      21.750456      21.750401      21.691349      21.632135      21.632187      21.691402      21.691460      21.632244      21.632307      21.691523      21.750580      21.750515      21.809412      21.809481      21.809553      21.809635      21.750731      21.750652      21.691593      21.632376      21.632452      21.691671      21.691757      21.632536      21.632627      21.691851      21.750914      21.750818      21.809723      21.809820      21.868574      21.927181      21.927080      21.868475      21.868385      21.868301      21.926903      21.926987      21.985447      21.985361      22.043686      22.043774      22.043871      21.985542      21.985645      22.043976      22.102182      22.160278      22.160170      22.102076      22.101976      22.101887      22.159977      22.160069      22.218065      22.217972      22.275883      22.275976      22.276079      22.218166      22.218277      22.276190      22.334023      22.333910      22.391624      22.391739      22.449213      22.506100      22.505981      22.449097      22.448990      22.505873      22.505772      22.448891      22.391420      22.333710      22.333805      22.391518      22.391249      22.333542      22.333622      22.391333      22.448799      22.505678      22.505592      22.448715      22.448637      22.505512      22.505440      22.448566      22.391106      22.391174      22.333467      22.333401      22.275578      22.217672      22.217737      22.275644      22.275795      22.275717      22.217808      22.217886      22.159893      22.159817      22.101728      22.101805      22.101660      22.159746      22.159683      22.101597      22.101540      22.159624      22.159573      22.101488      22.101440      22.101398      22.159481      22.159523      22.217510      22.217466      22.275368      22.275414      22.275463      22.217560      22.217613      22.275518      22.333338      22.333282      22.390984      22.391041      22.448502      22.505373      22.505312      22.448442      22.448387      22.505257      22.505205      22.448338      22.390882      22.333183      22.333231      22.390930      22.390799      22.333101      22.333141      22.390839      22.448292      22.505157      22.505116      22.448252      22.448214      22.505077      22.505041      22.448179      22.390728      22.390760      22.333067      22.333035      22.275223      22.217327      22.217358      22.275253      22.275326      22.275288      22.217390      22.217426      22.159441      22.159407      22.101324      22.101360      22.101294      22.159374      22.159346      22.101265      22.043076      21.984764      21.984791      22.043102      22.043167      22.043135      21.984821      21.984856      21.926409      21.926376      21.867792      21.867823      21.867764      21.926348      21.926321      21.867737      21.809006      21.809031      21.750145      21.750122      21.691080      21.631876      21.631897      21.691101      21.691126      21.631922      21.631948      21.691154      21.750200      21.750172      21.809057      21.809088      21.809122      21.809158      21.750269      21.750233      21.691185      21.631977      21.632011      21.691221      21.691259      21.632050      21.632090      21.691301      21.750353      21.750309      21.809200      21.809246      21.867987      21.867939      21.926529      21.926579      21.985027      22.043344      22.043293      21.984978      21.984932      22.043247      22.043205      21.984892      21.926445      21.867857      21.867897      21.926485      20.722786      20.660633      20.660658      20.722811      20.784760      20.846506      20.846479      20.784733      20.784710      20.846457      20.846436      20.784689      20.722744      20.722763      20.660612      20.660593      20.660578      20.722727      20.722712      20.660563      20.660551      20.660540      20.722687      20.722698      20.784643      20.784632      20.846375      20.846386      20.846401      20.784657      20.784672      20.846416      20.907963      20.969313      20.969296      20.907948      20.907932      20.907919      20.969267      20.969280      21.030434      21.030418      21.091379      21.091394      21.091412      21.030449      21.030468      21.091431      21.091454      21.091476      21.030512      21.030489      20.969334      20.907982      20.908005      20.969355      20.969381      20.908028      20.908056      20.969410      21.030569      21.091536      21.091505      21.030539      21.212872      21.152281      21.152313      21.212906      21.273314      21.333542      21.333504      21.273277      21.273247      21.333471      21.333443      21.273218      21.212814      21.212841      21.152252      21.152227      21.152205      21.212790      21.212769      21.152184      21.152166      21.152149      21.212734      21.212749      21.273151      21.273134      21.333355      21.333372      21.333393      21.273170      21.273193      21.333416      21.393463      21.453337      21.453312      21.393438      21.393417      21.393398      21.453270      21.453289      21.512993      21.512972      21.572508      21.572527      21.572552      21.513016      21.513041      21.572577      21.572607      21.572639      21.513100      21.513069      21.453363      21.393490      21.393520      21.453396      21.453430      21.393555      21.393591      21.453468      21.513176      21.572716      21.572676      21.513136      21.453888      21.394001      21.394085      21.453976      21.513693      21.573244      21.573153      21.513605      21.513523      21.573071      21.572996      21.513451      21.453737      21.393852      21.393923      21.453810      21.453613      21.393732      21.393789      21.453672      21.513384      21.572927      21.572866      21.513323      21.513269      21.572811      21.572760      21.513220      21.453512      21.393633      21.393681      21.453560      21.152391      21.152351      21.212944      21.212986      21.273396      21.273354      21.333582      21.333628      21.333733      21.333677      21.273445      21.273499      21.213085      21.213032      21.152435      21.152487      21.152605      21.152542      21.213142      21.213207      21.273624      21.273560      21.333794      21.333862      21.334021      21.333939      21.273697      21.273779      21.213356      21.213278      21.152674      21.152750      20.969736      20.908373      20.908443      20.969807      21.030977      21.091957      21.091883      21.030905      21.030840      21.091816      21.091757      21.030781      20.969616      20.908257      20.908312      20.969673      20.969519      20.908161      20.908207      20.969564      21.030729      21.091702      21.091654      21.030682      21.030640      21.091610      21.091572      21.030602      20.969442      20.908087      20.908123      20.969479      20.660715      20.660685      20.722839      20.722870      20.784821      20.784788      20.846537      20.846571      20.846653      20.846609      20.784859      20.784901      20.722948      20.722906      20.660751      20.660789      20.660883      20.660833      20.722994      20.723045      20.785000      20.784948      20.846701      20.846756      20.846884      20.846815      20.785059      20.785126      20.723166      20.723103      20.660938      20.661001      20.723858      20.661673      20.661814      20.724001      20.785982      20.847759      20.847610      20.785835      20.785702      20.847473      20.847349      20.785580      20.723608      20.723726      20.661547      20.661430      20.661325      20.723501      20.723404      20.661232      20.661146      20.661070      20.723236      20.723316      20.785280      20.785198      20.846958      20.847042      20.847134      20.785370      20.785471      20.847237      20.908804      20.970177      20.970070      20.908699      20.908606      20.908520      20.969885      20.969973      21.031147      21.031057      21.092039      21.092131      21.092232      21.031246      21.031355      21.092342      21.092464      21.092598      21.031605      21.031473      20.970293      20.908920      20.909046      20.970423      20.970564      20.909185      20.909338      20.970720      21.031908      21.092905      21.092745      21.031750      21.214172      21.153551      21.153715      21.214338      21.274780      21.335041      21.334871      21.274612      21.274458      21.334715      21.334572      21.274317      21.213882      21.214022      21.153402      21.153267      21.153143      21.213757      21.213642      21.153028      21.152927      21.152834      21.213442      21.213537      21.273964      21.273867      21.334112      21.334211      21.334320      21.274071      21.274189      21.334440      21.394514      21.454414      21.454288      21.394392      21.394281      21.394178      21.454071      21.454174      21.513897      21.513790      21.573343      21.573452      21.573570      21.514013      21.514141      21.573700      21.573841      21.573994      21.514431      21.514280      21.454550      21.394648      21.394794      21.454699      21.454859      21.394953      21.395126      21.455034      21.514772      21.574341      21.574160      21.514595      21.456738      21.396811      21.397133      21.457062      21.516819      21.576406      21.576078      21.516493      21.516190      21.575771      21.575487      21.515905      21.456156      21.396235      21.396513      21.456436      21.455654      21.395739      21.395977      21.455896      21.515644      21.575222      21.574976      21.515400      21.515173      21.574747      21.574535      21.514965      21.455225      21.395313      21.395517      21.455431      21.154087      21.153893      21.214520      21.214716      21.275162      21.274963      21.335226      21.335428      21.335882      21.335646      21.275377      21.275612      21.215158      21.214928      21.154297      21.154526      21.155039      21.154772      21.215410      21.215679      21.276136      21.275864      21.336138      21.336412      21.337029      21.336710      21.276430      21.276747      21.216286      21.215971      21.155329      21.155640      20.972275      20.910872      20.911173      20.972578      21.033789      21.094809      21.094500      21.033484      21.033199      21.094213      21.093948      21.032938      20.971735      20.910337      20.910595      20.971994      20.971277      20.909885      20.910103      20.971497      21.032696      21.093704      21.093479      21.032475      21.032269      21.093271      21.093081      21.032080      20.970890      20.909506      20.909687      20.971075      20.662138      20.661968      20.724159      20.724331      20.786318      20.786142      20.847923      20.848103      20.848513      20.848299      20.786510      20.786722      20.724728      20.724520      20.662323      20.662527      20.662992      20.662750      20.724953      20.725199      20.787199      20.786951      20.848745      20.848997      20.849569      20.849272      20.787472      20.787766      20.725758      20.725468      20.663258      20.663546      21.273035      21.333252      21.333248      21.273031      21.212637      21.152060      21.152061      21.212641      21.212645      21.152065      21.152069      21.212648      21.273045      21.273041      21.333256      21.333261      21.393301      21.393297      21.453165      21.453171      21.512869      21.572399      21.572393      21.512863      21.512859      21.572388      21.572384      21.512854      21.453156      21.453159      21.393291      21.393288      21.393284      21.393282      21.453150      21.453152      21.512850      21.572380      21.572376      21.512848      21.512844      21.572372      21.572371      21.512842      21.453144      21.453146      21.393278      21.393276      21.333237      21.273022      21.273024      21.333239      21.333244      21.333242      21.273026      21.273029      21.212633      21.212631      21.152054      21.152056      21.152052      21.212629      21.212627      21.152050      21.091286      21.030331      21.030333      21.091288      21.091291      21.091290      21.030334      21.030336      20.969189      20.969187      20.907845      20.907846      20.907843      20.969185      20.969185      20.907843      20.846302      20.846302      20.784563      20.784561      20.722622      20.660477      20.660479      20.722622      20.722624      20.660479      20.660480      20.722626      20.784565      20.846306      20.846304      20.784565      20.784569      20.846310      20.846308      20.784567      20.722626      20.660482      20.660484      20.722628      20.722631      20.660486      20.660488      20.722633      20.784575      20.784573      20.846312      20.846315      20.907856      20.969200      20.969196      20.907854      20.907850      20.907848      20.969191      20.969194      21.030342      21.030338      21.091293      21.091297      21.091301      21.030344      21.030348      21.091305      21.091309      21.030354      21.030357      21.091314      21.091328      21.091320      21.030363      21.030371      20.969219      20.969213      20.907869      20.907875      20.907866      20.969210      20.969204      20.907860      20.846319      20.846323      20.784582      20.784578      20.722637      20.660492      20.660494      20.722639      20.722645      20.660500      20.660503      20.722649      20.784592      20.846333      20.846327      20.784586      20.784603      20.846346      20.846338      20.784597      20.722654      20.660509      20.660515      20.722662      20.722668      20.660522      20.660530      20.722677      20.784620      20.784611      20.846354      20.846363      20.907907      20.969255      20.969244      20.907898      20.907888      20.907881      20.969227      20.969234      21.030386      21.030376      21.091335      21.091345      21.091354      21.030396      21.030407      21.091366      21.152136      21.152122      21.212706      21.212719      21.273117      21.333338      21.333323      21.273104      21.273092      21.333311      21.333300      21.273081      21.212683      21.152103      21.152113      21.212694      21.152094      21.212675      21.212667      21.152086      21.152081      21.152075      21.212654      21.212660      21.273056      21.273050      21.333267      21.333273      21.333281      21.273064      21.273071      21.333290      21.393332      21.453201      21.453192      21.393322      21.393314      21.393309      21.453176      21.453184      21.512884      21.512877      21.572407      21.572414      21.572424      21.512892      21.512901      21.572433      21.512924      21.572458      21.572445      21.512913      21.453213      21.393341      21.393353      21.453224      21.453238      21.393366      21.393381      21.453253      21.512955      21.512939      21.572472      21.572489      21.631857      21.631840      21.691042      21.691059      21.750101      21.808985      21.808966      21.750082      21.750065      21.808947      21.808931      21.750050      21.691011      21.631811      21.631824      21.691025      21.631798      21.690998      21.690987      21.631788      21.631779      21.631769      21.690969      21.690977      21.750015      21.750006      21.808886      21.808895      21.808907      21.750025      21.750038      21.808918      21.867645      21.926226      21.926212      21.867632      21.867620      21.867611      21.926189      21.926201      21.984640      21.984629      22.042936      22.042948      22.042961      21.984652      21.984667      22.042974      21.984699      22.043009      22.042992      21.984682      21.926241      21.867661      21.867676      21.926258      21.926277      21.867695      21.867716      21.926298      21.984739      21.984718      22.043028      22.043051      22.101240      22.159319      22.159296      22.101217      22.101196      22.101179      22.159256      22.159275      22.217255      22.217234      22.275127      22.275146      22.275169      22.217276      22.217300      22.275196      22.333006      22.332979      22.390671      22.390697      22.448149      22.505009      22.504980      22.448120      22.448093      22.504953      22.504930      22.448071      22.390623      22.390646      22.332956      22.332935      22.332914      22.332897      22.390587      22.390604      22.448051      22.504910      22.504890      22.448032      22.448015      22.504873      22.504858      22.448000      22.390556      22.390570      22.332882      22.332869      22.275064      22.275078      22.217186      22.217175      22.159199      22.101124      22.101135      22.159210      22.159224      22.101149      22.101162      22.159239      22.217216      22.275108      22.275091      22.217201      22.217144      22.275032      22.275024      22.217136      22.159161      22.101088      22.101095      22.159168      22.159178      22.101103      22.101112      22.159187      22.217163      22.217154      22.275042      22.275051      22.332855      22.332846      22.390532      22.390543      22.447987      22.504845      22.504831      22.447975      22.447964      22.504820      22.504810      22.447954      22.390511      22.390520      22.332834      22.332827      22.332819      22.332811      22.390495      22.390503      22.447947      22.504801      22.504793      22.447939      22.447931      22.504787      22.504780      22.447926      22.390484      22.390490      22.332806      22.332800      22.274998      22.217112      22.217117      22.275003      22.275017      22.275009      22.217123      22.217129      22.159155      22.159149      22.101076      22.101082      22.101072      22.159143      22.159140      22.101067      22.042883      22.042887      21.984581      21.984577      21.926140      21.867563      21.867567      21.926144      21.926147      21.867571      21.867575      21.926153      21.984591      22.042898      22.042892      21.984585      21.984619      22.042927      22.042919      21.984612      21.984604      22.042910      22.042904      21.984596      21.867580      21.926159      21.926165      21.867586      21.867594      21.926172      21.926180      21.867601      21.749998      21.808876      21.808868      21.749990      21.749985      21.808863      21.808857      21.749979      21.631746      21.690943      21.690948      21.631750      21.631756      21.690954      21.690962      21.631763      21.690935      21.631739      21.631741      21.690939      21.749973      21.808851      21.808846      21.749969      21.749966      21.808842      21.808840      21.749962      21.690928      21.690931      21.631735      21.631731      21.631729      21.631727      21.690924      21.690926      21.749960      21.808836      21.808834      21.749956      21.749954      21.808830      21.808828      21.749952      21.690920      21.631723      21.631725      21.690922      21.631721      21.690918      21.690916      21.631721      21.631720      21.631720      21.690914      21.690916      21.749949      21.749949      21.808823      21.808825      21.808826      21.749950      21.749952      21.808826      21.867550      21.926126      21.926125      21.867548      21.867548      21.867546      21.926123      21.926125      21.984560      21.984560      22.042864      22.042866      22.042868      21.984562      21.984564      22.042870      21.984568      22.042873      22.042871      21.984566      21.926128      21.867552      21.867554      21.926130      21.926134      21.867558      21.867559      21.926136      21.984573      21.984571      22.042877      22.042879      22.101063      22.159136      22.159132      22.101061      22.101057      22.101055      22.159126      22.159128      22.217100      22.217098      22.274984      22.274986      22.274990      22.217104      22.217108      22.274994      22.332794      22.332790      22.390474      22.390478      22.447920      22.504776      22.504770      22.447916      22.447912      22.504766      22.504763      22.447908      22.390467      22.390471      22.332787      22.332785      22.332781      22.332779      22.390461      22.390463      22.447905      22.504759      22.504757      22.447903      22.447899      22.504753      22.504751      22.447897      22.390457      22.390459      22.332777      22.332775      22.274975      22.274977      22.217091      22.217091      22.159119      22.101048      22.101049      22.159121      22.159121      22.101051      22.101053      22.159124      22.217096      22.274981      22.274979      22.217093      22.217087      22.274971      22.274971      22.217085      22.159115      22.101044      22.101044      22.159115      22.159117      22.101046      22.101046      22.159117      22.217089      22.217087      22.274971      22.274973      22.332773      22.332771      22.390453      22.390455      22.447895      22.504749      22.504747      22.447895      22.447893      22.504747      22.504745      22.447891      22.390451      22.390453      22.332771      22.332769      22.332769      22.332767      22.390450      22.390451      22.447891      22.504745      22.504744      22.447891      22.447889      22.504744      22.504744      22.447889      22.390450      22.390450      22.332767      22.332767      22.274969      22.217085      22.217085      22.274969      22.274969      22.274969      22.217085      22.217085      22.159113      22.159113      22.101044      22.101044      22.101042      22.15