<VTKFile type="UnstructuredGrid" version="1.0" byte_order="LittleEndian" header_type="UInt64">
  <UnstructuredGrid>
    <Piece NumberOfPoints="40602" NumberOfCells="20000">
      <CellData Scalars="Scalars_">
        <DataArray type="Float32" Name="Scalars_" format="ascii">
     24.009100      24.009100      23.982618      23.982618      23.939039      23.888044      23.888044      23.939039      23.939039      23.888044      23.888044      23.939041      23.982618      23.982618      24.009100      24.009102      24.009102      24.009104      23.982620      23.982620      23.939041      23.888046      23.888046      23.939043      23.939043      23.888048      23.888048      23.939045      23.982624      23.982622      24.009104      24.009106      24.009108      24.009109      23.982628      23.982626      23.939047      23.888050      23.888052      23.939049      23.939051      23.888056      23.888058      23.939054      23.982634      23.982630      24.009113      24.009115      24.009119      24.009123      23.982641      23.982637      23.939058      23.888062      23.888065      23.939062      23.939066      23.888069      23.888073      23.939070      23.982651      23.982645      24.009129      24.009132      24.009138      24.009146      23.982662      23.982656      23.939075      23.888079      23.888084      23.939081      23.939089      23.888090      23.888098      23.939096      23.982677      23.982670      24.009153      24.009161      24.009171      24.009180      23.982697      23.982687      23.939106      23.888107      23.888117      23.939116      23.939127      23.888126      23.888138      23.939138      23.982721      23.982708      24.009192      24.009205      24.009218      24.009235      23.982750      23.982735      23.939152      23.888151      23.888166      23.939167      23.939184      23.888184      23.888201      23.939203      23.982788      23.982767      24.009253      24.009272      24.009295      24.009319      23.982832      23.982809      23.939224      23.888222      23.888245      23.939247      23.939272      23.888269      23.888296      23.939301      23.982887      23.982859      24.009344      24.009375      23.939598      23.888588      23.888647      23.939657      23.983252      24.009743      24.009682      23.983191      23.983135      24.009624      24.009573      23.983084      23.939493      23.939543      23.888535      23.888485      23.888439      23.939445      23.939405      23.888399      23.888361      23.888327      23.939333      23.939367      23.982956      23.982920      24.009407      24.009443      24.009481      23.982994      23.983036      24.009525      23.888781      23.888710      23.939724      23.939795      23.983391      23.983318      24.009811      24.009886      24.010052      24.009966      23.983471      23.983557      23.939957      23.939873      23.888857      23.888939      23.889128      23.889030      23.940048      23.940147      23.983751      23.983650      24.010147      24.010250      24.010479      24.010359      23.983860      23.983978      23.940372      23.940256      23.889233      23.889345      23.941475      23.890434      23.890638      23.941683      23.985306      24.011816      24.011606      23.985096      23.984901      24.011410      24.011225      23.984718      23.941101      23.941282      23.890242      23.890064      23.889898      23.940933      23.940777      23.889744      23.889601      23.889469      23.940496      23.940632      23.984241      23.984106      24.010607      24.010746      24.010893      23.984390      23.984549      24.011053      23.891092      23.890858      23.941904      23.942141      23.985767      23.985529      24.012041      24.012281      24.012810      24.012537      23.986023      23.986294      23.942661      23.942392      23.891342      23.891609      23.892195      23.891893      23.942947      23.943253      23.986889      23.986582      24.013102      24.013409      24.014084      24.013737      23.987215      23.987560      23.943920      23.943577      23.892517      23.892859      23.284714      23.229176      23.229418      23.284958      23.340410      23.395782      23.395535      23.340164      23.339935      23.395304      23.395088      23.339722      23.284277      23.284489      23.228952      23.228745      23.173115      23.173321      23.117592      23.117388      23.061556      23.005617      23.005816      23.061758      23.061974      23.006031      23.006262      23.062208      23.118048      23.117811      23.173544      23.173782      23.174040      23.174314      23.118574      23.118301      23.062460      23.006512      23.006781      23.062731      23.063021      23.007069      23.007376      23.063332      23.119181      23.118868      23.174608      23.174925      23.230568      23.286118      23.285797      23.230251      23.229954      23.229675      23.285219      23.285498      23.340954      23.340673      23.396048      23.396332      23.396635      23.341255      23.341578      23.396959      23.452274      23.507540      23.507212      23.451948      23.451643      23.451357      23.506617      23.506905      23.562141      23.561852      23.617090      23.617382      23.617693      23.562452      23.562780      23.618025      23.673296      23.672964      23.728270      23.728605      23.783888      23.838884      23.838545      23.783550      23.783234      23.838226      23.837927      23.782934      23.727659      23.672356      23.672649      23.727955      23.727121      23.671824      23.672081      23.727381      23.782656      23.837645      23.837379      23.782393      23.782146      23.837132      23.836901      23.781918      23.726650      23.726877      23.671581      23.671356      23.616096      23.560867      23.561089      23.616322      23.616816      23.616560      23.561327      23.561581      23.506348      23.506096      23.450840      23.451090      23.450607      23.505861      23.505642      23.450390      23.450188      23.505438      23.505247      23.450001      23.449825      23.449665      23.504908      23.505072      23.560291      23.560125      23.615347      23.615515      23.615694      23.560471      23.560661      23.615889      23.671144      23.670950      23.726240      23.726439      23.781702      23.836683      23.836481      23.781502      23.781315      23.836292      23.836115      23.781141      23.725883      23.670597      23.670767      23.726055      23.725574      23.670292      23.670439      23.725723      23.780981      23.835953      23.835800      23.780830      23.780691      23.835659      23.835529      23.780563      23.725311      23.725437      23.670156      23.670033      23.614790      23.559576      23.559698      23.614914      23.615191      23.615047      23.559830      23.559973      23.504757      23.504616      23.449377      23.449516      23.449249      23.504486      23.504368      23.449133      23.393848      23.338499      23.338614      23.393965      23.394226      23.394089      23.338736      23.338869      23.283434      23.283302      23.227781      23.227911      23.227663      23.283182      23.283070      23.227552      23.171942      23.172049      23.116335      23.116230      23.060413      23.004492      23.004595      23.060518      23.060633      23.004707      23.004829      23.060757      23.116577      23.116451      23.172167      23.172295      23.172434      23.172585      23.116863      23.116714      23.060892      23.004963      23.005106      23.061039      23.061197      23.005262      23.005434      23.061369      23.117199      23.117023      23.172747      23.172924      23.228550      23.228371      23.283901      23.284082      23.339525      23.394890      23.394703      23.339342      23.339172      23.394531      23.394373      23.339014      23.283577      23.228052      23.228205      23.283733      23.282572      23.227068      23.227131      23.282639      23.338057      23.393396      23.393328      23.337990      23.337927      23.393265      23.393208      23.337872      23.282457      23.282513      23.227009      23.226955      23.171358      23.171410      23.115709      23.115660      23.059856      23.003946      23.003992      23.059904      23.059958      23.004045      23.004103      23.060017      23.115826      23.115765      23.171467      23.171528      23.171597      23.171671      23.115965      23.115891      23.060081      23.004166      23.004236      23.060154      23.060232      23.004314      23.004398      23.060320      23.116133      23.116045      23.171753      23.171843      23.227453      23.282969      23.282875      23.227362      23.227278      23.227201      23.282709      23.282789      23.338211      23.338131      23.393473      23.393555      23.393644      23.338299      23.338394      23.393742      23.449024      23.504257      23.504154      23.448923      23.448832      23.448748      23.503975      23.504061      23.559267      23.559179      23.614386      23.614475      23.614571      23.559361      23.559465      23.614676      23.669916      23.669811      23.725086      23.725195      23.780443      23.835407      23.835297      23.780334      23.780233      23.835194      23.835098      23.780140      23.724895      23.669622      23.669712      23.724987      23.724735      23.669466      23.669540      23.724812      23.780054      23.835011      23.834930      23.779976      23.779903      23.834856      23.834787      23.779837      23.724600      23.724665      23.669397      23.669333      23.614101      23.558901      23.558960      23.614164      23.614305      23.614231      23.559027      23.559099      23.503897      23.503826      23.448601      23.448671      23.448536      23.503759      23.503700      23.448477      23.448423      23.503647      23.503597      23.448376      23.448332      23.448292      23.503513      23.503553      23.558750      23.558708      23.613905      23.613949      23.613995      23.558796      23.558846      23.614046      23.669275      23.669224      23.724485      23.724541      23.779776      23.834724      23.834667      23.779718      23.779669      23.834614      23.834566      23.779621      23.724390      23.669130      23.669174      23.724436      23.724312      23.669056      23.669092      23.724350      23.779579      23.834522      23.834482      23.779541      23.779505      23.834446      23.834414      23.779472      23.724247      23.724277      23.669022      23.668993      23.613771      23.558578      23.558607      23.613800      23.613867      23.613832      23.558638      23.558672      23.503477      23.503443      23.448225      23.448257      23.448196      23.503414      23.503387      23.448170      23.392906      23.337578      23.337603      23.392931      23.392990      23.392960      23.337629      23.337660      23.282253      23.282223      23.226728      23.226757      23.226704      23.282196      23.282171      23.226679      23.171093      23.171114      23.115425      23.115404      23.059610      23.003708      23.003727      23.059631      23.059654      23.003750      23.003775      23.059679      23.115477      23.115450      23.171139      23.171167      23.171198      23.171232      23.115538      23.115505      23.059708      23.003801      23.003832      23.059740      23.059774      23.003866      23.003904      23.059814      23.115616      23.115574      23.171270      23.171312      23.226908      23.226864      23.282364      23.282408      23.337820      23.393154      23.393108      23.337774      23.337732      23.393064      23.393026      23.337694      23.282286      23.226789      23.226826      23.282324      22.150869      22.092949      22.092970      22.150892      22.208673      22.266315      22.266293      22.208651      22.208630      22.266272      22.266253      22.208612      22.150833      22.150850      22.092930      22.092913      22.092899      22.150818      22.150805      22.092886      22.092876      22.092867      22.150784      22.150793      22.208570      22.208561      22.266199      22.266211      22.266224      22.208582      22.208597      22.266237      22.323742      22.381109      22.381094      22.323727      22.323713      22.323702      22.381069      22.381081      22.438313      22.438299      22.495399      22.495413      22.495428      22.438328      22.438343      22.495445      22.495464      22.495485      22.438383      22.438362      22.381126      22.323757      22.323776      22.381147      22.381170      22.323799      22.323824      22.381195      22.438433      22.495539      22.495510      22.438406      22.609329      22.552485      22.552513      22.609360      22.666080      22.722677      22.722645      22.666048      22.666019      22.722614      22.722588      22.665995      22.609278      22.609303      22.552458      22.552435      22.552414      22.609257      22.609238      22.552397      22.552380      22.552366      22.609205      22.609221      22.665934      22.665918      22.722507      22.722525      22.722544      22.665953      22.665972      22.722565      22.779036      22.835390      22.835369      22.779015      22.778996      22.778978      22.835331      22.835348      22.891588      22.891569      22.947695      22.947714      22.947735      22.891607      22.891630      22.947758      22.947784      22.947815      22.891685      22.891657      22.835417      22.779060      22.779089      22.835443      22.835476      22.779119      22.779154      22.835512      22.891754      22.947886      22.947847      22.891718      22.835896      22.779528      22.779606      22.835976      22.892231      22.948370      22.948286      22.892149      22.892073      22.948210      22.948141      22.892006      22.835756      22.779392      22.779457      22.835823      22.835644      22.779282      22.779335      22.835697      22.891945      22.948078      22.948023      22.891890      22.891840      22.947971      22.947926      22.891794      22.835550      22.779192      22.779234      22.835594      22.552584      22.552546      22.609394      22.609432      22.666157      22.666117      22.722713      22.722755      22.722853      22.722801      22.666201      22.666248      22.609522      22.609474      22.552624      22.552670      22.552776      22.552721      22.609575      22.609632      22.666365      22.666304      22.722908      22.722971      22.723116      22.723040      22.666431      22.666504      22.609770      22.609697      22.552839      22.552908      22.381489      22.324108      22.324171      22.381552      22.438803      22.495920      22.495852      22.438736      22.438677      22.495792      22.495737      22.438623      22.381380      22.324001      22.324053      22.381432      22.381292      22.323917      22.323957      22.381334      22.438578      22.495687      22.495644      22.438534      22.438498      22.495605      22.495569      22.438463      22.381224      22.323851      22.323883      22.381256      22.093021      22.092995      22.150917      22.150946      22.208729      22.208698      22.266342      22.266373      22.266447      22.266407      22.208761      22.208799      22.151014      22.150978      22.093052      22.093088      22.093170      22.093126      22.151054      22.151100      22.208889      22.208841      22.266491      22.266539      22.266655      22.266594      22.208942      22.209002      22.151211      22.151152      22.093220      22.093277      22.151834      22.093884      22.094009      22.151966      22.209778      22.267452      22.267315      22.209644      22.209524      22.267191      22.267078      22.209414      22.151609      22.151716      22.093767      22.093662      22.093569      22.151512      22.151424      22.093483      22.093407      22.093338      22.151274      22.151346      22.209141      22.209068      22.266724      22.266798      22.266882      22.209223      22.209314      22.266975      22.324499      22.381889      22.381792      22.324404      22.324318      22.324240      22.381624      22.381702      22.438955      22.438875      22.495995      22.496077      22.496170      22.439045      22.439144      22.496271      22.496382      22.496504      22.439375      22.439255      22.381996      22.324604      22.324720      22.382114      22.382244      22.324846      22.324986      22.382385      22.439651      22.496786      22.496639      22.439507      22.610519      22.553642      22.553793      22.610672      22.667425      22.724056      22.723898      22.667271      22.667128      22.723755      22.723621      22.667000      22.610252      22.610380      22.553505      22.553381      22.553267      22.610136      22.610031      22.553164      22.553070      22.552984      22.609848      22.609936      22.666676      22.666586      22.723198      22.723291      22.723391      22.666773      22.666882      22.723501      22.780001      22.836380      22.836266      22.779888      22.779785      22.779692      22.836063      22.836161      22.892418      22.892321      22.948462      22.948563      22.948673      22.892527      22.892645      22.948793      22.948923      22.949066      22.892912      22.892773      22.836506      22.780125      22.780258      22.836643      22.836792      22.780405      22.780565      22.836954      22.893229      22.949387      22.949219      22.893063      22.838537      22.782129      22.782427      22.838839      22.895132      22.951311      22.951004      22.894829      22.894545      22.950718      22.950453      22.894281      22.837996      22.781593      22.781851      22.838257      22.837530      22.781132      22.781353      22.837753      22.894037      22.950207      22.949978      22.893810      22.893600      22.949764      22.949568      22.893408      22.837132      22.780739      22.780928      22.837322      22.554134      22.553957      22.610838      22.611019      22.667778      22.667593      22.724226      22.724413      22.724834      22.724615      22.667976      22.668192      22.611429      22.611216      22.554329      22.554539      22.555016      22.554768      22.611660      22.611910      22.668680      22.668427      22.725071      22.725327      22.725897      22.725601      22.668953      22.669247      22.612471      22.612179      22.555283      22.555571      22.383814      22.326393      22.326670      22.384094      22.441383      22.498543      22.498257      22.441101      22.440840      22.497992      22.497747      22.440599      22.383318      22.325903      22.326138      22.383556      22.382896      22.325489      22.325687      22.383099      22.440376      22.497522      22.497314      22.440172      22.439983      22.497124      22.496948      22.439810      22.382542      22.325140      22.325306      22.382711      22.094305      22.094151      22.152109      22.152266      22.210085      22.209925      22.267601      22.267765      22.268139      22.267944      22.210262      22.210453      22.152628      22.152439      22.094473      22.094660      22.095083      22.094862      22.152834      22.153059      22.210892      22.210663      22.268353      22.268583      22.269110      22.268835      22.211140      22.211411      22.153570      22.153305      22.095325      22.095589      22.665831      22.722416      22.722414      22.665829      22.609119      22.552286      22.552288      22.609123      22.609127      22.552292      22.552296      22.609131      22.665838      22.665834      22.722420      22.722425      22.778893      22.778887      22.835238      22.835241      22.891478      22.947599      22.947594      22.891472      22.891468      22.947588      22.947584      22.891464      22.835230      22.835234      22.778883      22.778879      22.778877      22.778873      22.835224      22.835226      22.891460      22.947580      22.947578      22.891459      22.891455      22.947575      22.947573      22.891453      22.835218      22.835220      22.778872      22.778870      22.722404      22.665819      22.665821      22.722406      22.722410      22.722408      22.665823      22.665825      22.609118      22.609116      22.552282      22.552284      22.552280      22.609114      22.609112      22.552279      22.495317      22.438225      22.438225      22.495317      22.495321      22.495319      22.438227      22.438229      22.381002      22.381001      22.323639      22.323639      22.323637      22.380999      22.380997      22.323635      22.266138      22.266138      22.208502      22.208502      22.150728      22.092813      22.092813      22.150728      22.150730      22.092815      22.092815      22.150730      22.208506      22.266142      22.266140      22.208504      22.208508      22.266144      22.266142      22.208506      22.150732      22.092817      22.092819      22.150734      22.150736      22.092821      22.092823      22.150738      22.208513      22.208509      22.266146      22.266150      22.323648      22.381010      22.381008      22.323647      22.323643      22.323641      22.381004      22.381006      22.438232      22.438231      22.495323      22.495327      22.495329      22.438236      22.438238      22.495333      22.495337      22.438242      22.438246      22.495340      22.495352      22.495346      22.438251      22.438257      22.381027      22.381023      22.323660      22.323664      22.323654      22.381018      22.381014      22.323652      22.266151      22.266155      22.208519      22.208515      22.150740      22.092825      22.092829      22.150743      22.150747      22.092831      22.092834      22.150751      22.208527      22.266165      22.266159      22.208523      22.208536      22.266176      22.266169      22.208530      22.150755      22.092840      22.092844      22.150761      22.150768      22.092852      22.092857      22.150774      22.208551      22.208544      22.266182      22.266191      22.323692      22.381058      22.381048      22.323685      22.323677      22.323669      22.381035      22.381041      22.438271      22.438263      22.495359      22.495367      22.495377      22.438280      22.438290      22.495386      22.552353      22.552343      22.609180      22.609192      22.665905      22.722494      22.722481      22.665892      22.665880      22.722469      22.722460      22.665871      22.609161      22.552324      22.552334      22.609169      22.552317      22.609154      22.609146      22.552311      22.552305      22.552299      22.609135      22.609140      22.665850      22.665844      22.722429      22.722437      22.722443      22.665855      22.665863      22.722450      22.778917      22.835270      22.835260      22.778910      22.778904      22.778896      22.835247      22.835253      22.891489      22.891483      22.947605      22.947613      22.947620      22.891497      22.891506      22.947628      22.891527      22.947651      22.947639      22.891516      22.835279      22.778927      22.778938      22.835289      22.835302      22.778950      22.778963      22.835316      22.891554      22.891539      22.947664      22.947678      23.003691      23.003675      23.059576      23.059591      23.115385      23.171072      23.171055      23.115368      23.115353      23.171038      23.171024      23.115339      23.059549      23.003649      23.003662      23.059561      23.003639      23.059538      23.059526      23.003630      23.003620      23.003613      23.059511      23.059519      23.115307      23.115299      23.170982      23.170990      23.171000      23.115316      23.115328      23.171011      23.226595      23.282084      23.282072      23.226583      23.226574      23.226564      23.282051      23.282061      23.337463      23.337454      23.392778      23.392788      23.392799      23.337475      23.337486      23.392813      23.337517      23.392843      23.392828      23.337502      23.282099      23.226608      23.226624      23.282114      23.282131      23.226641      23.226658      23.282150      23.337555      23.337534      23.392862      23.392883      23.448147      23.503363      23.503342      23.448126      23.448107      23.448090      23.503305      23.503323      23.558512      23.558495      23.613684      23.613703      23.613724      23.558533      23.558554      23.613747      23.668966      23.668941      23.724194      23.724218      23.779444      23.834383      23.834356      23.779417      23.779394      23.834332      23.834309      23.779373      23.724150      23.724171      23.668919      23.668900      23.668882      23.668865      23.724115      23.724133      23.779354      23.834290      23.834272      23.779337      23.779320      23.834255      23.834242      23.779306      23.724087      23.724100      23.668852      23.668839      23.613625      23.613638      23.558451      23.558439      23.503252      23.448040      23.448050      23.503263      23.503275      23.448063      23.448076      23.503290      23.558477      23.613667      23.613651      23.558462      23.558411      23.613596      23.613588      23.558403      23.503220      23.448008      23.448015      23.503225      23.503233      23.448023      23.448030      23.503242      23.558428      23.558418      23.613604      23.613615      23.668827      23.668818      23.724064      23.724075      23.779295      23.834229      23.834217      23.779284      23.779274      23.834208      23.834198      23.779264      23.724047      23.724054      23.668808      23.668800      23.668793      23.668787      23.724031      23.724039      23.779257      23.834190      23.834183      23.779249      23.779243      23.834175      23.834169      23.779238      23.724020      23.724026      23.668781      23.668776      23.613565      23.558382      23.558386      23.613569      23.613581      23.613575      23.558392      23.558397      23.503214      23.503208      23.447998      23.448002      23.447992      23.503202      23.503199      23.447989      23.392731      23.392735      23.337410      23.337406      23.282007      23.226521      23.226524      23.282009      23.282013      23.226528      23.226532      23.282019      23.337418      23.392742      23.392738      23.337414      23.337444      23.392769      23.392761      23.337437      23.337429      23.392754      23.392748      23.337423      23.226536      23.282022      23.282028      23.226542      23.226549      23.282036      23.282043      23.226555      23.115292      23.170973      23.170967      23.115284      23.115278      23.170961      23.170956      23.115274      23.003592      23.059486      23.059492      23.003595      23.003601      23.059498      23.059504      23.003607      23.059479      23.003584      23.003588      23.059483      23.115269      23.170950      23.170946      23.115265      23.115263      23.170942      23.170940      23.115259      23.059473      23.059477      23.003582      23.003580      23.003576      23.003574      23.059469      23.059471      23.115257      23.170937      23.170935      23.115255      23.115253      23.170933      23.170931      23.115252      23.059465      23.003572      23.003574      23.059467      23.003571      23.059465      23.059464      23.003571      23.003569      23.003569      23.059462      23.059464      23.115248      23.115248      23.170927      23.170927      23.170929      23.115250      23.115250      23.170929      23.226509      23.281994      23.281994      23.226507      23.226507      23.226505      23.281990      23.281992      23.337391      23.337391      23.392714      23.392714      23.392715      23.337393      23.337395      23.392717      23.337399      23.392721      23.392719      23.337397      23.281996      23.226511      23.226513      23.281998      23.282001      23.226515      23.226517      23.282003      23.337402      23.337400      23.392723      23.392727      23.447985      23.503195      23.503193      23.447983      23.447981      23.447977      23.503187      23.503189      23.558372      23.558369      23.613552      23.613554      23.613558      23.558374      23.558378      23.613562      23.668772      23.668768      23.724012      23.724016      23.779232      23.834166      23.834160      23.779228      23.779224      23.834156      23.834154      23.779221      23.724005      23.724009      23.668764      23.668760      23.668758      23.668756      23.723999      23.724003      23.779219      23.834150      23.834148      23.779215      23.779213      23.834145      23.834143      23.779211      23.723995      23.723997      23.668755      23.668753      23.613543      23.613544      23.558363      23.558361      23.503180      23.447971      23.447973      23.503181      23.503183      23.447973      23.447975      23.503185      23.558367      23.613548      23.613546      23.558365      23.558359      23.613541      23.613539      23.558357      23.503176      23.447968      23.447969      23.503178      23.503178      23.447969      23.447969      23.503180      23.558361      23.558359      23.613541      23.613543      23.668751      23.668749      23.723993      23.723995      23.779209      23.834141      23.834141      23.779209      23.779207      23.834139      23.834139      23.779207      23.723991      23.723991      23.668749      23.668747      23.668747      23.668747      23.723989      23.723991      23.779205      23.834137      23.834137      23.779205      23.779205      23.834137      23.834137      23.779205      23.723989      23.723989      23.668747      23.668747      23.613539      23.558357      23.558357      23.613539      23.613539      23.613539      23.558357      23.558357      23.503176      23.503176      23.447968      23.447968      23.447968      23.50