<VTKFile type="UnstructuredGrid" version="1.0" byte_order="LittleEndian" header_type="UInt64">
  <UnstructuredGrid>
    <Piece NumberOfPoints="40602" NumberOfCells="20000">
      <CellData Scalars="Scalars_">
        <DataArray type="Float32" Name="Scalars_" format="ascii">
     18.678118      18.678118      18.650061      18.650061      18.602209      18.543568      18.543570      18.602209      18.602211      18.543570      18.543570      18.602211      18.650063      18.650063      18.678118      18.678120      18.678122      18.678123      18.650066      18.650064      18.602213      18.543571      18.543573      18.602215      18.602217      18.543575      18.543577      18.602219      18.650070      18.650068      18.678125      18.678127      18.678131      18.678133      18.650078      18.650074      18.602222      18.543581      18.543583      18.602224      18.602228      18.543587      18.543592      18.602234      18.650085      18.650082      18.678139      18.678143      18.678148      18.678154      18.650097      18.650091      18.602238      18.543596      18.543602      18.602243      18.602251      18.543610      18.543615      18.602259      18.650110      18.650103      18.678162      18.678169      18.678177      18.678186      18.650129      18.650120      18.602266      18.543625      18.543633      18.602276      18.602287      18.543644      18.543655      18.602299      18.650152      18.650141      18.678198      18.678211      18.678225      18.678240      18.650181      18.650166      18.602312      18.543669      18.543682      18.602325      18.602343      18.543697      18.543716      18.602362      18.650217      18.650198      18.678257      18.678276      18.678297      18.678320      18.650261      18.650238      18.602381      18.543736      18.543758      18.602404      18.602428      18.543783      18.543810      18.602457      18.650314      18.650286      18.678345      18.678373      18.678406      18.678440      18.650379      18.650345      18.602488      18.543839      18.543873      18.602520      18.602558      18.543909      18.543949      18.602598      18.650459      18.650417      18.678478      18.678520      18.603022      18.544365      18.544449      18.603106      18.650972      18.679039      18.678953      18.650887      18.650808      18.678873      18.678801      18.650736      18.602873      18.602943      18.544289      18.544218      18.544155      18.602808      18.602747      18.544096      18.544043      18.543993      18.602644      18.602694      18.650555      18.650505      18.678566      18.678617      18.678673      18.650610      18.650671      18.678734      18.544638      18.544538      18.603197      18.603298      18.651167      18.651066      18.679132      18.679235      18.679466      18.679346      18.651278      18.651396      18.603523      18.603407      18.544744      18.544861      18.545122      18.544987      18.603651      18.603788      18.651665      18.651525      18.679596      18.679737      18.680052      18.679888      18.651815      18.651978      18.604097      18.603937      18.545269      18.545427      18.605612      18.546926      18.547207      18.605894      18.653788      18.681871      18.681585      18.653503      18.653236      18.681318      18.681068      18.652988      18.605101      18.605347      18.546665      18.546419      18.546192      18.604870      18.604656      18.545979      18.545782      18.545597      18.604271      18.604456      18.652338      18.652151      18.680227      18.680416      18.680618      18.652540      18.652758      18.680836      18.547825      18.547506      18.606195      18.606516      18.654413      18.654091      18.682175      18.682499      18.683212      18.682844      18.654757      18.655123      18.607224      18.606859      18.548166      18.548529      18.549326      18.548916      18.607611      18.608023      18.655926      18.655514      18.683603      18.684017      18.684921      18.684456      18.656364      18.656828      18.608923      18.608459      18.549761      18.550222      17.758972      17.683523      17.683870      17.759319      17.834349      17.908957      17.908606      17.834000      17.833673      17.908279      17.907972      17.833368      17.758343      17.758646      17.683201      17.682899      17.607031      17.607330      17.531034      17.530737      17.454010      17.376842      17.377136      17.454306      17.454624      17.377453      17.377794      17.454966      17.531698      17.531355      17.607653      17.607998      17.608368      17.608765      17.532463      17.532068      17.455334      17.378160      17.378551      17.455729      17.456148      17.378973      17.379421      17.456600      17.533337      17.532885      17.609188      17.609640      17.685516      17.760969      17.760517      17.685064      17.684639      17.684242      17.759693      17.760090      17.835123      17.834723      17.909332      17.909733      17.910160      17.835548      17.836002      17.910614      17.984800      18.058540      18.058084      17.984344      17.983915      17.983515      18.057253      18.057655      18.130919      18.130516      18.203236      18.203640      18.204071      18.131348      18.131805      18.204529      18.276592      18.276134      18.347322      18.347780      18.417702      18.485632      18.485170      18.417242      18.416809      18.484737      18.484329      18.416403      18.346485      18.275297      18.275703      18.346891      18.345745      18.274561      18.274918      18.346102      18.416019      18.483944      18.483583      18.415659      18.415323      18.483244      18.482927      18.415007      18.345095      18.345407      18.274225      18.273912      18.201857      18.129141      18.129450      18.202168      18.202856      18.202501      18.129782      18.130136      18.056877      18.056522      17.982786      17.983139      17.982456      18.056192      18.055883      17.982149      17.981863      18.055595      18.055326      17.981596      17.981348      17.981117      18.054844      18.055077      18.128328      18.128094      18.200804      18.201040      18.201294      18.128580      18.128851      18.201565      18.273621      18.273346      18.344524      18.344799      18.414711      18.482628      18.482349      18.414434      18.414175      18.482090      18.481848      18.413935      18.344028      18.272854      18.273092      18.344267      18.343597      18.272427      18.272633      18.343805      18.413710      18.481621      18.481411      18.413502      18.413307      18.481215      18.481033      18.413126      18.343227      18.343407      18.272236      18.272058      18.200016      18.127314      18.127487      18.200191      18.200584      18.200380      18.127674      18.127876      18.054628      18.054428      17.980705      17.980904      17.980520      18.054243      18.054070      17.980350      17.906187      17.831598      17.831764      17.906355      17.906734      17.906538      17.831944      17.832138      17.757122      17.756929      17.681496      17.681686      17.681318      17.756752      17.756586      17.681156      17.605303      17.605463      17.529181      17.529022      17.452309      17.375156      17.375313      17.452465      17.452637      17.375481      17.375666      17.452824      17.529541      17.529354      17.605639      17.605827      17.606031      17.606255      17.529964      17.529745      17.453024      17.375866      17.376081      17.453243      17.453480      17.376316      17.376570      17.453733      17.530460      17.530203      17.606495      17.606752      17.682619      17.682358      17.757799      17.758062      17.833084      17.907688      17.907423      17.832821      17.832577      17.907175      17.906946      17.832350      17.757330      17.681892      17.682117      17.757557      17.755844      17.680424      17.680521      17.755943      17.830944      17.905525      17.905422      17.830843      17.830751      17.905329      17.905243      17.830667      17.755671      17.755754      17.680336      17.680256      17.604416      17.604496      17.528227      17.528149      17.451448      17.374308      17.374382      17.451525      17.451609      17.374464      17.374556      17.451700      17.528404      17.528313      17.604582      17.604677      17.604782      17.604895      17.528620      17.528507      17.451801      17.374655      17.374763      17.451912      17.452032      17.374884      17.375013      17.452164      17.528875      17.528742      17.605019      17.605154      17.681007      17.756435      17.756296      17.680870      17.680742      17.680628      17.756050      17.756168      17.831173      17.831053      17.905636      17.905758      17.905890      17.831303      17.831444      17.906033      17.980194      18.053911      18.053764      17.980049      17.979914      17.979792      18.053505      18.053629      18.126867      18.126741      18.199438      18.199566      18.199703      18.127005      18.127153      18.199854      18.271896      18.271744      18.342909      18.343061      18.412960      18.480864      18.480707      18.412806      18.412663      18.480564      18.480429      18.412531      18.342638      18.271477      18.271605      18.342768      18.342407      18.271250      18.271358      18.342518      18.412409      18.480305      18.480192      18.412296      18.412193      18.480085      18.479990      18.412098      18.342213      18.342306      18.271149      18.271057      18.199026      18.126333      18.126423      18.199116      18.199322      18.199215      18.126520      18.126627      18.053391      18.053286      17.979574      17.979679      17.979481      18.053190      18.053101      17.979393      17.979315      18.053020      18.052948      17.979242      17.979176      17.979116      18.052820      18.052881      18.126110      18.126049      18.198734      18.198797      18.198868      18.126179      18.126253      18.198942      18.270973      18.270895      18.342049      18.342127      18.412010      18.479900      18.479818      18.411930      18.411856      18.479742      18.479673      18.411789      18.341909      18.270761      18.270824      18.341976      18.341795      18.270649      18.270702      18.341850      18.411728      18.479610      18.479553      18.411671      18.411619      18.479502      18.479454      18.411573      18.341700      18.341745      18.270599      18.270555      18.198534      18.125853      18.125895      18.198578      18.198677      18.198626      18.125940      18.125992      18.052765      18.052715      17.979013      17.979061      17.978968      18.052670      18.052629      17.978928      17.904785      17.830217      17.830256      17.904823      17.904917      17.904867      17.830299      17.830345      17.755356      17.755310      17.679903      17.679947      17.679861      17.755268      17.755230      17.679825      17.603996      17.604033      17.527775      17.527740      17.451050      17.373919      17.373953      17.451084      17.451120      17.373989      17.374029      17.451162      17.527857      17.527813      17.604073      17.604116      17.604164      17.604219      17.527956      17.527905      17.451210      17.374075      17.374125      17.451260      17.451317      17.374180      17.374241      17.451380      17.528078      17.528015      17.604279      17.604343      17.680182      17.680115      17.755527      17.755596      17.830589      17.905165      17.905094      17.830521      17.830456      17.905029      17.904970      17.830399      17.755407      17.679998      17.680054      17.755465      16.159153      16.073895      16.073936      16.159195      16.243877      16.327997      16.327953      16.243835      16.243797      16.327915      16.327879      16.243763      16.159081      16.159115      16.073858      16.073826      16.073797      16.159052      16.159025      16.073772      16.073750      16.073730      16.158981      16.159002      16.243681      16.243660      16.327774      16.327797      16.327820      16.243706      16.243732      16.327848      16.411409      16.494425      16.494394      16.411381      16.411356      16.411333      16.494345      16.494368      16.576843      16.576818      16.658764      16.658789      16.658815      16.576870      16.576900      16.658848      16.658884      16.658922      16.576973      16.576935      16.494457      16.411442      16.411478      16.494493      16.494535      16.411518      16.411564      16.494583      16.577065      16.659018      16.658968      16.577017      16.821318      16.740398      16.740450      16.821371      16.901789      16.981714      16.981659      16.901735      16.901688      16.981609      16.981565      16.901644      16.821228      16.821272      16.740353      16.740313      16.740274      16.821190      16.821157      16.740242      16.740213      16.740187      16.821100      16.821127      16.901537      16.901510      16.981426      16.981457      16.981487      16.901569      16.901604      16.981524      17.060961      17.139921      17.139883      17.060923      17.060890      17.060860      17.139818      17.139849      17.218342      17.218309      17.296341      17.296373      17.296410      17.218376      17.218414      17.296448      17.296492      17.296541      17.218506      17.218458      17.139963      17.061001      17.061047      17.140011      17.140062      17.061098      17.061155      17.140120      17.218618      17.296656      17.296595      17.218559      17.140734      17.061758      17.061880      17.140860      17.219368      17.297419      17.297289      17.219242      17.219126      17.297171      17.297064      17.219019      17.140514      17.061543      17.061646      17.140619      17.140333      17.061365      17.061449      17.140419      17.218922      17.296965      17.296877      17.218834      17.218756      17.296795      17.296722      17.218683      17.140184      17.061218      17.061287      17.140255      16.740568      16.740505      16.821428      16.821493      16.901917      16.901850      16.981775      16.981844      16.982002      16.981918      16.901989      16.902069      16.821644      16.821566      16.740639      16.740715      16.740896      16.740801      16.821732      16.821827      16.902258      16.902159      16.982094      16.982195      16.982426      16.982304      16.902367      16.902485      16.822050      16.821934      16.740999      16.741114      16.495096      16.412067      16.412174      16.495205      16.577700      16.659666      16.659554      16.577589      16.577490      16.659452      16.659359      16.577398      16.494909      16.411882      16.411970      16.494997      16.494757      16.411734      16.411804      16.494829      16.577316      16.659277      16.659201      16.577244      16.577177      16.659132      16.659071      16.577118      16.494635      16.411613      16.411671      16.494692      16.074034      16.073982      16.159241      16.159294      16.243980      16.243927      16.328047      16.328104      16.328234      16.328165      16.244041      16.244110      16.159420      16.159353      16.074091      16.074156      16.074308      16.074228      16.159494      16.159576      16.244268      16.244184      16.328312      16.328396      16.328596      16.328491      16.244362      16.244465      16.159767      16.159666      16.074396      16.074495      16.160835      16.075544      16.075758      16.161053      16.245771      16.329924      16.329700      16.245550      16.245350      16.329494      16.329308      16.245165      16.160456      16.160637      16.075348      16.075169      16.075006      16.160290      16.160139      16.074860      16.074726      16.074604      16.159880      16.160004      16.244705      16.244579      16.328712      16.328840      16.328981      16.244844      16.244997      16.329138      16.412724      16.495762      16.495602      16.412565      16.412422      16.412291      16.495325      16.495457      16.577955      16.577822      16.659790      16.659925      16.660076      16.578102      16.578264      16.660240      16.660419      16.660616      16.578636      16.578442      16.495937      16.412895      16.413086      16.496130      16.496340      16.413294      16.413519      16.496569      16.579081      16.661064      16.660830      16.578850      16.823244      16.742292      16.742529      16.823483      16.903936      16.983894      16.983652      16.903696      16.903475      16.983429      16.983223      16.903271      16.822826      16.823027      16.742077      16.741879      16.741695      16.822641      16.822474      16.741529      16.741379      16.741240      16.822178      16.822319      16.902758      16.902615      16.982559      16.982704      16.982862      16.902914      16.903086      16.983036      17.062500      17.141487      17.141310      17.062325      17.062164      17.062016      17.140997      17.141146      17.219660      17.219507      17.297558      17.297712      17.297880      17.219826      17.220005      17.298061      17.298260      17.298475      17.220413      17.220201      17.141680      17.062691      17.062899      17.141890      17.142118      17.063124      17.063368      17.142365      17.220892      17.298958      17.298706      17.220642      17.144732      17.065723      17.066168      17.145180      17.223719      17.301798      17.301350      17.223272      17.222855      17.300930      17.300539      17.222464      17.143929      17.064922      17.065308      17.144316      17.143230      17.064228      17.064562      17.143566      17.222101      17.300175      17.299835      17.221764      17.221451      17.299520      17.299229      17.221161      17.142632      17.063633      17.063919      17.142920      16.743063      16.742785      16.823742      16.824022      16.904478      16.904196      16.984158      16.984442      16.985081      16.984749      16.904783      16.905113      16.824654      16.824326      16.743364      16.743690      16.744421      16.744041      16.825006      16.825388      16.905853      16.905470      16.985439      16.985823      16.986681      16.986237      16.906265      16.906708      16.826241      16.825798      16.744831      16.745270      16.498823      16.415758      16.416191      16.499258      16.581789      16.663790      16.663351      16.581352      16.580946      16.662945      16.662567      16.580570      16.498047      16.414986      16.415358      16.498421      16.497383      16.414326      16.414642      16.497702      16.580223      16.662216      16.661892      16.579903      16.579605      16.661594      16.661318      16.579332      16.496817      16.413765      16.414034      16.497089      16.076250      16.075994      16.161291      16.161551      16.246275      16.246012      16.330168      16.330433      16.331036      16.330723      16.246561      16.246874      16.162144      16.161835      16.076530      16.076838      16.077532      16.077169      16.162479      16.162844      16.247578      16.247211      16.331377      16.331745      16.332575      16.332144      16.247974      16.248404      16.163664      16.163237      16.077923      16.078348      16.901348      16.981260      16.981253      16.901342      16.820938      16.740032      16.740038      16.820944      16.820951      16.740044      16.740051      16.820959      16.901363      16.901356      16.981268      16.981276      17.060705      17.060696      17.139650      17.139658      17.218145      17.296171      17.296162      17.218136      17.218128      17.296152      17.296144      17.218121      17.139635      17.139641      17.060688      17.060680      17.060675      17.060669      17.139622      17.139627      17.218113      17.296139      17.296133      17.218107      17.218103      17.296127      17.296122      17.218098      17.139614      17.139618      17.060665      17.060661      16.981234      16.901323      16.901327      16.981237      16.981247      16.981243      16.901331      16.901337      16.820932      16.820929      16.740023      16.740026      16.740019      16.820923      16.820921      16.740015      16.658598      16.576662      16.576664      16.658602      16.658609      16.658606      16.576668      16.576672      16.494205      16.494202      16.411196      16.411200      16.411192      16.494198      16.494196      16.411190      16.327637      16.327639      16.243530      16.243528      16.158855      16.073608      16.073610      16.158857      16.158859      16.073612      16.073616      16.158863      16.243536      16.327646      16.327642      16.243534      16.243544      16.327654      16.327650      16.243540      16.158867      16.073618      16.073624      16.158871      16.158875      16.073627      16.073633      16.158880      16.243555      16.243549      16.327660      16.327665      16.411219      16.494226      16.494221      16.411213      16.411207      16.411203      16.494209      16.494215      16.576681      16.576677      16.658615      16.658621      16.658627      16.576689      16.576694      16.658634      16.658642      16.576702      16.576712      16.658651      16.658674      16.658663      16.576721      16.576733      16.494263      16.494251      16.411243      16.411255      16.411234      16.494242      16.494234      16.411226      16.327671      16.327681      16.243568      16.243561      16.158886      16.073639      16.073645      16.158894      16.158903      16.073652      16.073662      16.158911      16.243587      16.327698      16.327688      16.243578      16.243610      16.327723      16.327711      16.243599      16.158922      16.073673      16.073685      16.158934      16.158949      16.073698      16.073713      16.158964      16.243641      16.243626      16.327738      16.327755      16.411314      16.494324      16.494307      16.411295      16.411280      16.411266      16.494276      16.494289      16.576761      16.576746      16.658688      16.658703      16.658720      16.576778      16.576797      16.658741      16.740164      16.740143      16.821054      16.821075      16.901485      16.981401      16.981379      16.901463      16.901443      16.981358      16.981340      16.901424      16.821018      16.740108      16.740126      16.821035      16.740095      16.821003      16.820990      16.740082      16.740070      16.740061      16.820969      16.820978      16.901384      16.901373      16.981285      16.981297      16.981310      16.901396      16.901409      16.981323      17.060755      17.139709      17.139694      17.060740      17.060726      17.060715      17.139669      17.139681      17.218168      17.218157      17.296183      17.296196      17.296209      17.218184      17.218199      17.296227      17.218235      17.296265      17.296244      17.218216      17.139727      17.060770      17.060789      17.139746      17.139767      17.060810      17.060833      17.139791      17.218283      17.218258      17.296288      17.296312      17.373890      17.373863      17.450993      17.451019      17.527708      17.603964      17.603935      17.527679      17.527655      17.603909      17.603886      17.527632      17.450947      17.373819      17.373840      17.450968      17.373800      17.450926      17.450909      17.373783      17.373768      17.373755      17.450880      17.450893      17.527578      17.527563      17.603813      17.603828      17.603846      17.527594      17.527613      17.603865      17.679688      17.755089      17.755070      17.679668      17.679651      17.679636      17.755035      17.755053      17.830034      17.830019      17.904581      17.904598      17.904617      17.830053      17.830072      17.904638      17.830122      17.904688      17.904661      17.830095      17.755112      17.679710      17.679733      17.755136      17.755165      17.679760      17.679790      17.755196      17.830181      17.830151      17.904716      17.904749      17.978891      18.052591      18.052557      17.978859      17.978828      17.978802      18.052500      18.052528      18.125748      18.125721      18.198399      18.198427      18.198460      18.125780      18.125814      18.198494      18.270515      18.270477      18.341619      18.341658      18.411530      18.479410      18.479370      18.411491      18.411457      18.479334      18.479301      18.411425      18.341555      18.341585      18.270445      18.270414      18.270388      18.270363      18.341501      18.341526      18.411396      18.479273      18.479246      18.411369      18.411346      18.479221      18.479200      18.411325      18.341459      18.341478      18.270342      18.270321      18.198307      18.198326      18.125652      18.125633      18.052416      17.978720      17.978737      18.052433      18.052454      17.978756      17.978779      18.052475      18.125694      18.198372      18.198349      18.125671      18.125589      18.198261      18.198250      18.125576      18.052361      17.978668      17.978680      18.052372      18.052385      17.978691      17.978704      18.052401      18.125616      18.125601      18.198275      18.198290      18.270304      18.270288      18.341423      18.341440      18.411306      18.479181      18.479164      18.411289      18.411274      18.479149      18.479134      18.411261      18.341396      18.341408      18.270273      18.270260      18.270248      18.270239      18.341373      18.341383      18.411249      18.479122      18.479111      18.411238      18.411228      18.479101      18.479092      18.411219      18.341354      18.341364      18.270229      18.270222      18.198212      18.125542      18.125549      18.198219      18.198238      18.198229      18.125557      18.125566      18.052351      18.052341      17.978649      17.978659      17.978642      18.052334      18.052328      17.978636      17.904499      17.904507      17.829945      17.829939      17.754959      17.679560      17.679565      17.754965      17.754971      17.679573      17.679581      17.754978      17.829960      17.904522      17.904512      17.829952      17.830004      17.904568      17.904554      17.829990      17.829979      17.904541      17.904531      17.829969      17.679588      17.754988      17.754997      17.679598      17.679609      17.755009      17.755022      17.679623      17.527552      17.603800      17.603788      17.527540      17.527529      17.603777      17.603769      17.527521      17.373716      17.450838      17.450848      17.373724      17.373734      17.450857      17.450867      17.373743      17.450825      17.373703      17.373709      17.450830      17.527514      17.603760      17.603752      17.527506      17.527500      17.603746      17.603741      17.527494      17.450813      17.450819      17.373697      17.373692      17.373688      17.373684      17.450806      17.450809      17.527489      17.603737      17.603731      17.527485      17.527481      17.603727      17.603725      17.527479      17.450798      17.373678      17.373680      17.450802      17.373674      17.450796      17.450794      17.373672      17.373671      17.373671      17.450790      17.450792      17.527472      17.527470      17.603716      17.603718      17.603720      17.527473      17.527475      17.603722      17.679541      17.754938      17.754934      17.679537      17.679535      17.679533      17.754930      17.754932      17.829910      17.829908      17.904469      17.904472      17.904474      17.829914      17.829916      17.904476      17.829924      17.904484      17.904480      17.829920      17.754940      17.679543      17.679546      17.754944      17.754948      17.679550      17.679556      17.754953      17.829933      17.829927      17.904490      17.904493      17.978630      18.052320      18.052315      17.978624      17.978619      17.978615      18.052307      18.052311      18.125525      18.125519      18.198189      18.198195      18.198198      18.125528      18.125534      18.198206      18.270214      18.270208      18.341341      18.341349      18.411211      18.479084      18.479076      18.411205      18.411200      18.479071      18.479065      18.411194      18.341330      18.341335      18.270203      18.270197      18.270193      18.270189      18.341322      18.341326      18.411188      18.479059      18.479055      18.411184      18.411180      18.479052      18.479048      18.411179      18.341316      18.341318      18.270185      18.270184      18.198175      18.198177      18.125509      18.125505      18.052294      17.978603      17.978605      18.052298      18.052299      17.978609      17.978611      18.052303      18.125515      18.198185      18.198181      18.125511      18.125502      18.198170      18.198168      18.125500      18.052288      17.978598      17.978600      18.052288      18.052290      17.978600      17.978601      18.052292      18.125504      18.125502      18.198172      18.198174      18.270182      18.270180      18.341311      18.341312      18.411175      18.479046      18.479044      18.411173      18.411171      18.479042      18.479040      18.411169      18.341307      18.341309      18.270178      18.270176      18.270174      18.270174      18.341305      18.341307      18.411169      18.479038      18.479038      18.411167      18.411167      18.479038      18.479036      18.411167      18.341305      18.341305      18.270174      18.270174      18.198166      18.125498      18.125498      18.198166      18.198168      18.198166      18.125498      18.125498      18.052286      18.052286      17.978596      17.978598      17.978596      18.05