<VTKFile type="UnstructuredGrid" version="1.0" byte_order="LittleEndian" header_type="UInt64">
  <UnstructuredGrid>
    <Piece NumberOfPoints="40602" NumberOfCells="20000">
      <CellData Scalars="Scalars_">
        <DataArray type="Float32" Name="Scalars_" format="ascii">
     -86.023750      -86.023750      -86.023750      -86.023750      -86.023750      -86.023750      -86.023750      -86.023750      -86.023750      -86.023750      -86.023750      -86.023750      -86.023750      -86.023750      -86.023750      -86.023750      -86.023750      -86.023750      -86.023750      -86.023750      -86.023750      -86.023750      -86.023750      -86.023750      -86.023750      -86.023750      -86.023750      -86.023750      -86.023750      -86.023750      -86.023750      -86.023750      -86.023750      -86.023750      -86.023750      -86.023750      -86.023750      -86.023750      -86.023750      -86.023750      -86.023750      -86.023750      -86.023750      -86.023750      -86.023750      -86.023750      -86.023750      -86.023750      -86.023750      -86.023750      -86.023750      -86.023750      -86.023750      -86.023750      -86.023750      -86.023750      -86.023750      -86.023750      -86.023750      -86.023750      -86.023750      -86.023750      -86.023750      -86.023750      -86.023750      -86.023750      -86.023750      -86.023750      -86.023750      -86.023750      -86.023750      -86.023750      -86.023750      -86.023750      -86.023750      -86.023750      -86.023750      -86.023750      -86.023750      -86.023750      -86.023750      -86.023750      -86.023750      -86.023750      -86.023750      -86.023750      -86.023750      -86.023750      -86.023750      -86.023750      -86.023750      -86.023750      -86.023750      -86.023750      -86.023750      -86.023750      -86.023750      -86.023750      -86.023750      -86.023750      -86.023750      -86.023750      -86.023750      -86.023750      -86.023750      -86.023750      -86.023750      -86.023750      -86.023750      -86.023750      -86.023750      -86.023750      -86.023750      -86.023750      -86.023750      -86.023750      -86.023750      -86.023750      -86.023750      -86.023750      -86.023750      -86.023750      -86.023750      -86.023750      -86.023750      -86.023750      -86.023750      -86.023750      -86.023750      -86.023750      -86.023750      -86.023750      -86.023750      -86.023750      -86.023750      -86.023750      -86.023750      -86.023750      -86.023750      -86.023750      -86.023750      -86.023750      -86.023750      -86.023750      -86.023750      -86.023750      -86.023750      -86.023750      -86.023750      -86.023750      -86.023750      -86.023750      -86.023750      -86.023750      -86.023750      -86.023750      -86.023750      -86.023750      -86.023750      -86.023750      -86.023750      -86.023750      -86.023750      -86.023750      -86.023750      -86.023750      -86.023750      -86.023750      -86.023750      -86.023750      -86.023750      -86.023750      -86.023750      -86.023750      -86.023750      -86.023750      -86.023750      -86.023750      -86.023750      -86.023750      -86.023750      -86.023750      -86.023750      -86.023750      -86.023750      -86.023750      -86.023750      -86.023750      -86.023750      -86.023750      -86.023750      -86.023750      -86.023750      -86.023750      -86.023750      -86.023750      -86.023750      -86.023750      -86.023750      -86.023750      -86.023750      -86.023750      -86.023750      -86.023750      -86.023750      -86.023750      -86.023750      -86.023750      -86.023750      -86.023750      -86.023750      -86.023750      -86.023750      -86.023750      -86.023750      -86.023750      -86.023750      -86.023750      -86.023750      -86.023750      -86.023750      -86.023750      -86.023750      -86.023750      -86.023750      -86.023750      -86.023750      -86.023750      -86.023750      -86.023750      -86.023750      -86.023750      -86.023750      -86.023750      -86.023750      -86.023750      -86.023750      -86.023750      -86.023750      -86.023750      -86.023750      -86.023750      -86.023750      -86.023750      -86.023750      -86.023750      -86.023750      -86.023750      -86.023750      -86.023750      -86.023750      -86.023750      -86.023750      -86.023750      -86.023750      -86.023750      -86.021561      -86.012718      -86.012787      -86.021576      -86.023315      -86.023666      -86.023666      -86.023315      -86.023315      -86.023659      -86.023659      -86.023308      -86.021538      -86.021545      -86.012657      -86.012596      -85.967606      -85.967911      -85.742104      -85.740585      -84.591568      -78.879921      -78.913704      -84.599159      -84.607361      -78.950256      -78.989769      -84.616203      -85.745506      -85.743744      -85.968231      -85.968575      -85.968948      -85.969345      -85.749428      -85.747398      -84.625717      -79.032410      -79.078316      -84.635925      -84.646858      -79.127640      -79.180504      -84.658546      -85.753922      -85.751602      -85.969772      -85.970230      -86.013115      -86.021637      -86.021622      -86.013023      -86.012939      -86.012863      -86.021584      -86.021599      -86.023323      -86.023323      -86.023666      -86.023666      -86.023666      -86.023323      -86.023331      -86.023666      -86.023735      -86.023743      -86.023743      -86.023735      -86.023735      -86.023735      -86.023743      -86.023743      -86.023750      -86.023750      -86.023750      -86.023750      -86.023750      -86.023750      -86.023750      -86.023750      -86.023750      -86.023750      -86.023750      -86.023750      -86.023750      -86.023750      -86.023750      -86.023750      -86.023750      -86.023750      -86.023750      -86.023750      -86.023750      -86.023750      -86.023750      -86.023750      -86.023750      -86.023750      -86.023750      -86.023750      -86.023750      -86.023750      -86.023750      -86.023750      -86.023750      -86.023750      -86.023750      -86.023750      -86.023750      -86.023750      -86.023750      -86.023750      -86.023750      -86.023750      -86.023750      -86.023750      -86.023750      -86.023750      -86.023750      -86.023750      -86.023743      -86.023743      -86.023735      -86.023735      -86.023735      -86.023743      -86.023743      -86.023735      -86.023735      -86.023743      -86.023743      -86.023735      -86.023735      -86.023735      -86.023743      -86.023743      -86.023750      -86.023750      -86.023750      -86.023750      -86.023750      -86.023750      -86.023750      -86.023750      -86.023750      -86.023750      -86.023750      -86.023750      -86.023750      -86.023750      -86.023750      -86.023750      -86.023750      -86.023750      -86.023750      -86.023750      -86.023750      -86.023750      -86.023750      -86.023750      -86.023750      -86.023750      -86.023750      -86.023750      -86.023750      -86.023750      -86.023750      -86.023750      -86.023750      -86.023750      -86.023750      -86.023750      -86.023750      -86.023750      -86.023750      -86.023750      -86.023750      -86.023750      -86.023750      -86.023750      -86.023750      -86.023750      -86.023750      -86.023750      -86.023743      -86.023743      -86.023735      -86.023735      -86.023735      -86.023743      -86.023743      -86.023735      -86.023659      -86.023293      -86.023300      -86.023659      -86.023659      -86.023659      -86.023300      -86.023300      -86.021484      -86.021484      -86.012329      -86.012367      -86.012299      -86.021477      -86.021469      -86.012268      -85.965919      -85.966072      -85.732780      -85.732002      -84.548767      -78.690544      -78.707542      -84.552635      -84.556870      -78.726219      -78.746674      -84.561501      -85.734558      -85.733635      -85.966240      -85.966423      -85.966621      -85.966843      -85.736679      -85.735573      -84.566559      -78.769028      -78.793411      -84.572067      -84.578056      -78.819931      -78.848717      -84.584541      -85.739174      -85.737877      -85.967079      -85.967331      -86.012543      -86.012497      -86.021515      -86.021523      -86.023308      -86.023659      -86.023659      -86.023308      -86.023300      -86.023659      -86.023659      -86.023300      -86.021492      -86.012405      -86.012444      -86.021507      -86.021439      -86.012131      -86.012154      -86.021446      -86.023293      -86.023659      -86.023659      -86.023293      -86.023293      -86.023659      -86.023659      -86.023293      -86.021439      -86.021439      -86.012115      -86.012108      -85.965111      -85.965179      -85.728249      -85.727905      -84.528450      -78.601593      -78.609047      -84.530159      -84.532074      -78.617378      -78.626648      -84.534195      -85.729065      -85.728638      -85.965256      -85.965340      -85.965439      -85.965538      -85.730072      -85.729546      -84.536552      -78.636963      -78.648407      -84.539169      -84.542061      -78.661079      -78.675095      -84.545250      -85.731293      -85.730652      -85.965652      -85.965782      -86.012238      -86.021461      -86.021454      -86.012215      -86.012192      -86.012169      -86.021446      -86.021454      -86.023293      -86.023293      -86.023659      -86.023659      -86.023659      -86.023293      -86.023293      -86.023659      -86.023735      -86.023743      -86.023743      -86.023735      -86.023735      -86.023735      -86.023743      -86.023743      -86.023750      -86.023750      -86.023750      -86.023750      -86.023750      -86.023750      -86.023750      -86.023750      -86.023750      -86.023750      -86.023750      -86.023750      -86.023750      -86.023750      -86.023750      -86.023750      -86.023750      -86.023750      -86.023750      -86.023750      -86.023750      -86.023750      -86.023750      -86.023750      -86.023750      -86.023750      -86.023750      -86.023750      -86.023750      -86.023750      -86.023750      -86.023750      -86.023750      -86.023750      -86.023750      -86.023750      -86.023750      -86.023750      -86.023750      -86.023750      -86.023750      -86.023750      -86.023750      -86.023750      -86.023750      -86.023750      -86.023750      -86.023750      -86.023743      -86.023743      -86.023735      -86.023735      -86.023735      -86.023743      -86.023743      -86.023735      -86.023735      -86.023743      -86.023743      -86.023727      -86.023727      -86.023727      -86.023743      -86.023743      -86.023750      -86.023750      -86.023750      -86.023750      -86.023750      -86.023750      -86.023750      -86.023750      -86.023750      -86.023750      -86.023750      -86.023750      -86.023750      -86.023750      -86.023750      -86.023750      -86.023750      -86.023750      -86.023750      -86.023750      -86.023750      -86.023750      -86.023750      -86.023750      -86.023750      -86.023750      -86.023750      -86.023750      -86.023750      -86.023750      -86.023750      -86.023750      -86.023750      -86.023750      -86.023750      -86.023750      -86.023750      -86.023750      -86.023750      -86.023750      -86.023750      -86.023750      -86.023750      -86.023750      -86.023750      -86.023750      -86.023750      -86.023750      -86.023743      -86.023743      -86.023727      -86.023727      -86.023727      -86.023743      -86.023743      -86.023727      -86.023659      -86.023285      -86.023285      -86.023659      -86.023659      -86.023659      -86.023285      -86.023285      -86.021423      -86.021423      -86.012047      -86.012054      -86.012039      -86.021423      -86.021423      -86.012039      -85.964775      -85.964798      -85.726318      -85.726181      -84.519958      -78.564606      -78.567551      -84.520638      -84.521400      -78.570877      -78.574638      -84.522263      -85.726646      -85.726471      -85.964828      -85.964867      -85.964905      -85.964951      -85.727066      -85.726845      -84.523232      -78.578865      -78.583626      -84.524323      -84.525543      -78.588951      -78.594917      -84.526917      -85.727592      -85.727318      -85.964996      -85.965050      -86.012093      -86.012085      -86.021431      -86.021431      -86.023293      -86.023659      -86.023659      -86.023293      -86.023285      -86.023659      -86.023659      -86.023285      -86.021431      -86.012062      -86.012070      -86.021431      16.096361      16.519068      16.518906      16.096201      15.703043      15.346338      15.346501      15.703203      15.703344      15.346647      15.346777      15.703469      16.096628      16.096502      16.519211      16.519337      16.519445      16.096739      16.096836      16.519543      16.519627      16.519701      16.096996      16.096922      15.703770      15.703849      15.347167      15.347086      15.346995      15.703681      15.703582      15.346892      15.034332      14.774210      14.774304      15.034433      15.034523      15.034601      14.774461      14.774387      14.575255      14.575319      14.445197      14.445147      14.445089      14.575184      14.575102      14.445025      14.444952      14.444870      14.574905      14.575009      14.774104      15.034218      15.034090      14.773984      14.773850      15.033946      15.033785      14.773700      14.574656      14.444674      14.444777      14.574788      14.410672      14.389724      14.389653      14.410637      14.498706      14.611139      14.611132      14.498711      14.498714      14.611125      14.611119      14.498718      14.410731      14.410704      14.389786      14.389842      14.389891      14.410757      14.410779      14.389935      14.389974      14.390008      14.410818      14.410799      14.498729      14.498733      14.611110      14.611109      14.611111      14.498725      14.498721      14.611115      14.611893      15.130171      15.131090      14.612127      14.612339      14.612530      15.132647      15.131913      19.316233      19.307848      -51.972069      -51.981895      -51.993000      19.325733      19.336508      -52.005520      -52.019600      -52.035389      19.362593      19.348730      15.129150      14.611630      14.611341      15.128033      15.126824      14.611022      14.610671      15.125514      19.396198      -52.072735      -52.053036      19.378321      15.110224      14.606609      14.605691      15.106738      19.637846      -52.337315      -52.291077      19.595522      19.557264      -52.249241      -52.211468      19.522753      15.116024      14.608141      14.607422      15.113304      15.120544      14.609342      14.608778      15.118426      19.491674      -52.177433      -52.146824      19.463745      19.438686      -52.119358      -52.094749      19.416248      15.124056      14.610280      14.609839      15.122411      14.389483      14.389574      14.410597      14.410550      14.498693      14.498700      14.611147      14.611155      14.611162      14.611160      14.498681      14.498667      14.410435      14.410497      14.389382      14.389269      14.389000      14.389141      14.410364      14.410283      14.498618      14.498646      14.611159      14.611150      14.611099      14.611131      14.498583      14.498538      14.410087      14.410191      14.388844      14.388673      14.772096      15.032078      15.031732      14.771777      14.572954      14.443290      14.443522      14.573236      14.573499      14.443739      14.443936      14.573741      14.772662      15.032682      15.032393      14.772390      14.773139      15.033188      15.032947      14.772911      14.573962      14.444117      14.444280      14.574163      14.574346      14.444426      14.444556      14.574510      14.773532      15.033607      15.033408      14.773345      16.518513      16.518723      16.096020      16.095814      15.702662      15.702864      15.346156      15.345955      15.345487      15.345732      15.702435      15.702182      16.095320      16.095581      16.518274      16.518005      16.517357      16.517700      16.095024      16.094692      15.701580      15.701898      15.345214      15.344912      15.344201      15.344575      15.701223      15.700824      16.093897      16.094318      16.516970      16.516533      16.089180      16.511637      16.510601      16.088181      15.695420      15.339215      15.340088      15.696366      15.697223      15.340877      15.341589      15.697996      16.090904      16.090086      16.512575      16.513424      16.514189      16.091642      16.092302      16.514877      16.515493      16.516043      16.093426      16.092896      15.699876      15.700377      15.343785      15.343322      15.342805      15.699316      15.698691      15.342229      15.029951      14.770213      14.770658      15.030466      15.030931      15.031351      14.771435      14.771063      14.572332      14.572653      14.443042      14.442780      14.442508      14.571992      14.571627      14.442227      14.441935      14.441624      14.570802      14.571232      14.769724      15.029380      15.028746      14.769185      14.768589      15.028044      15.027267      14.767931      14.569812      14.440931      14.441292      14.570331      14.409344      14.387331      14.387135      14.409292      14.498269      14.610741      14.610703      14.498221      14.498210      14.610717      14.610771      14.498237      14.409499      14.409411      14.387522      14.387712      14.387904      14.409607      14.409727      14.388101      14.388298      14.388490      14.409973      14.409851      14.498420      14.498483      14.611054      14.610996      14.610924      14.498353      14.498288      14.610846      14.600744      15.087655      15.093313      14.602191      14.603494      14.604657      15.102796      15.098340      19.736053      19.684572      -52.388306      -52.444416      -52.506012      19.792650      19.854738      -52.573479      -52.647175      -52.727470      19.996996      19.922709      15.081314      14.599155      14.597435      15.074253      15.066458      14.595607      14.593694      15.057935      20.166662      -52.909210      -52.814705      20.078102      14.967102      14.576473      14.573284      14.947671      21.217125      -53.993065      -53.820545      21.046822      20.889416      -53.659523      -53.509552      20.743700      15.000542      14.582360      14.579511      14.984698      15.027287      14.587396      14.584988      15.014692      20.608849      -53.370270      -53.241222      20.484217      20.369265      -53.121830      -53.011395      20.263521      15.048671      14.591704      14.589619      15.038531      14.386698      14.386926      14.409252      14.409216      14.498460      14.498351      14.610834      14.610977      14.611355      14.611156      14.498584      14.498715      14.409127      14.409176      14.386446      14.386168      14.385558      14.385869      14.409073      14.409025      14.499002      14.498851      14.611563      14.611791      14.612414      14.612067      14.499191      14.499425      14.408987      14.408996      14.385242      14.384916      14.761277      15.019419      15.017893      14.759996      14.563588      14.436652      14.437320      14.564580      14.565502      14.437947      14.438540      14.566363      14.763561      15.022126      15.020826      14.762462      14.765532      15.024443      15.023329      14.764583      14.567170      14.439101      14.439624      14.567921      14.568611      14.440102      14.440536      14.569241      14.767204      15.026410      15.025470      14.766405      16.508219      16.509464      16.087082      16.085878      15.693240      15.694379      15.338254      15.337201      15.334806      15.336053      15.691998      15.690648      16.083141      16.084568      16.506861      16.505381      16.501995      16.503763      16.081589      16.079895      15.687588      15.689182      15.333456      15.331991      15.328674      15.330401      15.685853      15.683967      16.076038      16.078049      16.500067      16.497967      14.498816      14.611246      14.611258      14.498821      14.410954      14.390222      14.390213      14.410948      14.410940      14.390203      14.390192      14.410933      14.498801      14.498809      14.611234      14.611220      14.613732      14.613811      15.136916      15.136680      19.265642      -51.922520      -51.919865      19.263401      19.261463      -51.917561      -51.915569      19.259790      15.137302      15.137122      14.613880      14.613941      14.613995      14.614040      15.137593      15.137458      19.258348      -51.913853      -51.912369      19.257107      19.256042      -51.911095      -51.910004      19.255131      15.137811      15.137710      14.614081      14.614117      14.611292      14.498842      14.498837      14.611284      14.611267      14.611277      14.498833      14.498828      14.410961      14.410966      14.390236      14.390229      14.390242      14.410972      14.410975      14.390247      14.445522      14.575718      14.575711      14.445516      14.445500      14.445509      14.575703      14.575693      14.774885      14.774896      15.035066      15.035055      15.035075      14.774905      14.774913      15.035083      15.347655      15.347648      15.704316      15.704324      16.097445      16.520126      16.520121      16.097437      16.097429      16.520113      16.520103      16.097420      15.704297      15.347628      15.347638      15.704308      15.704270      15.347600      15.347614      15.704285      16.097408      16.520094      16.520081      16.097395      16.097380      16.520065      16.520048      16.097361      15.704234      15.704254      15.347582      15.347562      15.034990      14.774824      14.774842      15.035010      15.035028      15.035042      14.774873      14.774859      14.575669      14.575682      14.445491      14.445480      14.445468      14.575654      14.575638      14.445454      14.445437      14.575618      14.575596      14.445418      14.445374      14.445397      14.575570      14.575541      14.774714      14.774748      15.034909      15.034873      15.034940      14.774776      14.774802      15.034966      15.347539      15.347511      15.704185      15.704211      16.097340      16.520029      16.520006      16.097315      16.097286      16.519979      16.519947      16.097254      15.704120      15.347444      15.347480      15.704154      15.704032      15.347355      15.347403      15.704079      16.097216      16.519911      16.519869      16.097172      16.097120      16.519821      16.519764      16.097063      15.703918      15.703979      15.347300      15.347238      15.034671      14.774526      14.774583      15.034732      15.034785      15.034833      14.774676      14.774632      14.575469      14.575507      14.445347      14.445316      14.445281      14.575425      14.575376      14.445242      14.390038      14.390066      14.410851      14.410834      14.498738      14.611114      14.611121      14.498745      14.498752      14.611132      14.611145      14.498760      14.410878      14.390113      14.390091      14.410865      14.390133      14.410892      14.410903      14.390150      14.390165      14.390180      14.410923      14.410913      14.498785      14.498794      14.611206      14.611191      14.611176      14.498777      14.498769      14.611160      14.613307      15.135365      15.135756      14.613430      14.613543      14.613643      15.136410      15.136103      19.271200      19.268227      -51.925579      -51.929092      -51.933117      19.274618      19.278534      -51.937717      19.288103      -51.948929      -51.942963      19.283007      15.134928      14.613172      14.613027      15.134441      15.133904      14.612871      14.612706      15.133307      19.300438      19.293888      -51.955704      -51.963379      -78.562004      -78.559700      -84.518837      -84.519363      -85.726059      -85.964745      -85.964729      -85.725952      -85.725861      -85.964706      -85.964691      -85.725777      -84.517967      -78.555885      -78.557671      -84.518372      -78.554321      -84.517601      -84.517288      -78.552940      -78.551735      -78.550690      -84.516777      -84.517014      -85.725586      -85.725540      -85.964645      -85.964653      -85.964668      -85.725639      -85.725708      -85.964676      -86.012016      -86.021416      -86.021416      -86.012016      -86.012016      -86.012009      -86.021416      -86.021416      -86.023285      -86.023285      -86.023659      -86.023659      -86.023659      -86.023285      -86.023285      -86.023659      -86.023285      -86.023659      -86.023659      -86.023285      -86.021423      -86.012024      -86.012024      -86.021423      -86.021423      -86.012032      -86.012032      -86.021423      -86.023285      -86.023285      -86.023659      -86.023659      -86.023727      -86.023743      -86.023743      -86.023727      -86.023727      -86.023727      -86.023743      -86.023743      -86.023750      -86.023750      -86.023750      -86.023750      -86.023750      -86.023750      -86.023750      -86.023750      -86.023750      -86.023750      -86.023750      -86.023750      -86.023750      -86.023750      -86.023750      -86.023750      -86.023750      -86.023750      -86.023750      -86.023750      -86.023750      -86.023750      -86.023750      -86.023750      -86.023750      -86.023750      -86.023750      -86.023750      -86.023750      -86.023750      -86.023750      -86.023750      -86.023750      -86.023750      -86.023750      -86.023750      -86.023750      -86.023750      -86.023750      -86.023750      -86.023750      -86.023750      -86.023750      -86.023750      -86.023743      -86.023727      -86.023727      -86.023743      -86.023743      -86.023727      -86.023727      -86.023743      -86.023750      -86.023750      -86.023750      -86.023750      -86.023750      -86.023750      -86.023750      -86.023750      -86.023743      -86.023727      -86.023727      -86.023743      -86.023743      -86.023727      -86.023727      -86.023743      -86.023750      -86.023750      -86.023750      -86.023750      -86.023750      -86.023750      -86.023750      -86.023750      -86.023750      -86.023750      -86.023750      -86.023750      -86.023750      -86.023750      -86.023750      -86.023750      -86.023750      -86.023750      -86.023750      -86.023750      -86.023750      -86.023750      -86.023750      -86.023750      -86.023750      -86.023750      -86.023750      -86.023750      -86.023750      -86.023750      -86.023750      -86.023750      -86.023750      -86.023750      -86.023750      -86.023750      -86.023750      -86.023750      -86.023750      -86.023750      -86.023750      -86.023750      -86.023750      -86.023750      -86.023743      -86.023743      -86.023727      -86.023727      -86.023727      -86.023743      -86.023743      -86.023727      -86.023659      -86.023659      -86.023285      -86.023285      -86.021416      -86.012001      -86.012001      -86.021416      -86.021416      -86.012001      -86.012009      -86.021416      -86.023285      -86.023659      -86.023659      -86.023285      -86.023285      -86.023659      -86.023659      -86.023285      -86.023285      -86.023659      -86.023659      -86.023285      -86.012009      -86.021416      -86.021416      -86.012009      -86.012009      -86.021416      -86.021416      -86.012009      -85.725494      -85.964638      -85.964630      -85.725456      -85.725426      -85.964622      -85.964615      -85.725395      -78.547699      -84.516090      -84.516228      -78.548294      -78.548981      -84.516380      -84.516563      -78.549774      -84.515869      -78.546738      -78.547180      -84.515968      -85.725372      -85.964615      -85.964607      -85.725357      -85.725334      -85.964607      -85.964600      -85.725319      -84.515709      -84.515785      -78.546356      -78.546028      -78.545753      -78.545509      -84.515587      -84.515640      -85.725311      -85.964600      -85.964600      -85.725296      -85.725288      -85.964592      -85.964592      -85.725281      -84.515503      -78.545135      -78.545311      -84.515541      -78.544991      -84.515472      -84.515442      -78.544868      -78.544762      -78.544678      -84.515396      -84.515419      -85.725266      -85.725258      -85.964592      -85.964592      -85.964592      -85.725266      -85.725273      -85.964592      -86.012001      -86.021416      -86.021416      -86.012001      -86.012001      -86.012001      -86.021416      -86.021416      -86.023285      -86.023285      -86.023659      -86.023659      -86.023659      -86.023285      -86.023285      -86.023659      -86.023285      -86.023659      -86.023659      -86.023285      -86.021416      -86.012001      -86.012001      -86.021416      -86.021416      -86.012001      -86.012001      -86.021416      -86.023285      -86.023285      -86.023659      -86.023659      -86.023727      -86.023743      -86.023743      -86.023727      -86.023727      -86.023727      -86.023743      -86.023743      -86.023750      -86.023750      -86.023750      -86.023750      -86.023750      -86.023750      -86.023750      -86.023750      -86.023750      -86.023750      -86.023750      -86.023750      -86.023750      -86.023750      -86.023750      -86.023750      -86.023750      -86.023750      -86.023750      -86.023750      -86.023750      -86.023750      -86.023750      -86.023750      -86.023750      -86.023750      -86.023750      -86.023750      -86.023750      -86.023750      -86.023750      -86.023750      -86.023750      -86.023750      -86.023750      -86.023750      -86.023750      -86.023750      -86.0237