<VTKFile type="UnstructuredGrid" version="1.0" byte_order="LittleEndian" header_type="UInt64">
  <UnstructuredGrid>
    <Piece NumberOfPoints="33434" NumberOfCells="16200">
      <CellData Scalars="Scalars_">
        <DataArray type="Float32" Name="Scalars_" format="ascii">
     3.447300      3.447456      3.396032      3.395875      3.300057      3.168867      3.169024      3.300214      3.300528      3.169339      3.169814      3.301001      3.396818      3.396345      3.447770      3.448242      3.448874      3.449668      3.398245      3.397450      3.301635      3.170450      3.171249      3.302431      3.303394      3.172215      3.173352      3.304526      3.400335      3.399205      3.450628      3.451757      3.453059      3.454539      3.403119      3.401638      3.305831      3.174663      3.176154      3.307316      3.308984      3.177830      3.179697      3.310842      3.406635      3.404783      3.456201      3.458051      3.460097      3.462343      3.410933      3.408683      3.312895      3.181762      3.184030      3.315152      3.317618      3.186511      3.189212      3.320303      3.416066      3.413391      3.464798      3.467469      3.470364      3.473490      3.422097      3.418965      3.323213      3.192141      3.195307      3.326358      3.329747      3.198719      3.202387      3.333388      3.429096      3.425472      3.476858      3.480475      3.484352      3.488497      3.437136      3.432981      3.337292      3.206321      3.210531      3.341468      3.345927      3.215028      3.219821      3.350678      3.446295      3.441571      3.492921      3.497633      3.502644      3.507963      3.456656      3.451320      3.355733      3.224923      3.230344      3.361102      3.366796      3.236095      3.242188      3.372826      3.468301      3.462313      3.513602      3.519572      3.525881      3.532540      3.481315      3.474632      3.379202      3.248633      3.255442      3.385935      3.393037      3.262626      3.270197      3.400517      3.495783      3.488362      3.539561      3.546952      3.464332      3.334893      3.345924      3.475196      3.569761      3.620586      3.609890      3.559009      3.548704      3.599636      3.589817      3.538837      3.443958      3.453922      3.324328      3.314219      3.304558      3.434432      3.425334      3.295335      3.286541      3.278165      3.408386      3.416655      3.511785      3.503587      3.554725      3.562888      3.571452      3.520387      3.529401      3.580426      3.369411      3.357427      3.486521      3.498314      3.592631      3.580966      3.631732      3.643333      3.667924      3.655395      3.604762      3.617363      3.523330      3.510582      3.381881      3.394844      3.422266      3.408304      3.536561      3.550282      3.643996      3.630440      3.680924      3.694398      3.722777      3.708348      3.658034      3.672554      3.579196      3.564492      3.436733      3.451707      3.695850      3.570651      3.589612      3.714427      3.805960      3.855261      3.837080      3.787646      3.769787      3.819350      3.802078      3.752392      3.660100      3.677738      3.552169      3.534174      3.516674      3.642941      3.626268      3.499674      3.483178      3.467188      3.594394      3.610085      3.703047      3.687559      3.737684      3.753070      3.768933      3.719017      3.735466      3.785270      3.628930      3.609043      3.733459      3.752934      3.843913      3.824719      3.873883      3.892933      3.932268      3.912400      3.863528      3.883548      3.793159      3.772840      3.649259      3.670015      3.712730      3.691179      3.813875      3.834969      3.924736      3.903957      3.952521      3.973139      4.015385      3.994101      3.945863      3.967314      3.878196      3.856417      3.734646      3.756900      1.350898      1.108260      1.149654      1.388831      1.625676      1.860078      1.827799      1.590775      1.556866      1.796371      1.765821      1.523972      1.278570      1.314139      1.068272      1.029694      0.777070      0.818966      0.565486      0.520031      0.257465      -0.012225      0.040372      0.306582      0.358099      0.095821      0.154324      0.412105      0.662461      0.612949      0.862543      0.907814      0.954782      1.003437      0.767721      0.714048      0.468672      0.216078      0.281242      0.527840      0.589606      0.349868      0.421806      0.653913      0.881283      0.823475      1.053758      1.105709      1.328825      1.551632      1.509366      1.282068      1.236589      1.192439      1.427912      1.468106      1.698319      1.661537      1.893176      1.927051      1.961655      1.735970      1.774431      1.996927      2.218374      2.437682      2.407283      2.185758      2.153716      2.122299      2.348047      2.377388      2.596852      2.569264      2.784491      2.810596      2.837163      2.624941      2.653487      2.864153      3.067742      3.042063      3.237368      3.261941      3.443957      3.610362      3.587487      3.420312      3.397029      3.564960      3.542810      3.374138      3.189387      2.991933      3.016782      3.213173      3.143155      2.943654      2.967548      3.166040      3.351664      3.521062      3.499735      3.329630      3.308059      3.478851      3.458426      3.286967      3.098863      3.120757      2.920276      2.897435      2.685319      2.464613      2.489863      2.709271      2.758882      2.733800      2.515738      2.542215      2.319302      2.291189      2.061524      2.091556      2.032236      2.263740      2.236980      2.003721      1.975999      2.210932      2.185611      1.949087      1.922997      1.897739      2.137207      2.161033      2.392809      2.370235      2.595612      2.617097      2.639217      2.416071      2.440011      2.661962      2.875148      2.853432      3.056657      3.077492      3.266370      3.438475      3.419010      3.246283      3.226715      3.400042      3.381581      3.207678      3.016641      2.811758      2.832298      3.036370      2.978888      2.772485      2.791818      2.997479      3.189177      3.363634      3.346205      3.171219      3.153807      3.329300      3.312920      3.136945      2.943434      2.960872      2.753762      2.735651      2.516151      2.286924      2.306699      2.535038      2.574771      2.554578      2.327176      2.348355      2.114138      2.091832      1.849731      1.873316      1.826981      2.070289      2.049507      1.805063      1.554451      1.298264      1.322864      1.577640      1.626773      1.601745      1.348478      1.375119      1.118712      1.090289      0.827309      0.857671      0.798236      1.063014      1.036868      0.770422      0.498897      0.528475      0.253495      0.222098      -0.060300      -0.348705      -0.313747      -0.027088      0.007828      -0.276951      -0.238233      0.044521      0.321009      0.286446      0.559456      0.591882      0.625793      0.661230      0.395198      0.357239      0.083067      -0.197501      -0.154655      0.123545      0.166043      -0.109582      -0.062154      0.210651      0.476535      0.434943      0.698232      0.736835      0.992525      0.956755      1.211038      1.244202      1.492111      1.736169      1.707431      1.461292      1.431521      1.679616      1.652730      1.402798      1.148302      0.889349      0.922369      1.179073      0.902357      0.628174      0.649115      0.922243      1.189883      1.451821      1.433852      1.170992      1.152977      1.416693      1.400326      1.135814      0.865407      0.883422      0.608263      0.589346      0.307739      0.327597      0.041411      0.020588      -0.272191      -0.570750      -0.547998      -0.250398      -0.227372      -0.523935      -0.498506      -0.203061      0.086560      0.063386      0.348527      0.370570      0.393766      0.418155      0.136693      0.110980      -0.177412      -0.471650      -0.443307      -0.150370      -0.121878      -0.413413      -0.381902      -0.091875      0.192201      0.163750      0.443779      0.470679      0.743835      1.011828      0.987871      0.718444      0.694216      0.671117      0.943105      0.964972      1.230388      1.209675      1.470620      1.490266      1.510777      1.252044      1.274663      1.532167      1.783971      2.029483      2.010211      1.763696      1.744229      1.725556      1.973893      1.991684      2.231788      2.214787      2.447095      2.463393      2.480331      2.249473      2.267850      2.497916      2.718152      2.701263      2.910291      2.926574      3.120632      3.297066      3.281739      3.104869      3.089654      3.266937      3.252658      3.074984      2.879447      2.669305      2.684982      2.894583      2.850870      2.639735      2.654225      2.864878      3.060854      3.238898      3.225652      3.047260      3.034195      3.212916      3.200682      3.021653      2.824507      2.837415      2.625829      2.612497      2.388155      2.153441      2.167800      2.401970      2.431431      2.416392      2.182803      2.198462      1.956827      1.940474      1.690544      1.707667      1.674174      1.924823      1.909858      1.658540      1.643624      1.895565      1.881930      1.629409      1.615877      1.603007      1.856564      1.868935      2.114099      2.102182      2.338730      2.350236      2.362300      2.126604      2.139714      2.374936      2.599730      2.587516      2.800295      2.812137      3.009626      3.188944      3.177694      2.998105      2.987081      3.166924      3.156624      2.976546      2.778156      2.564707      2.575846      2.788971      2.758002      2.543973      2.554087      2.767837      2.966487      3.146785      3.137397      2.956895      2.947758      3.128450      3.119932      2.939066      2.739740      2.748641      2.534353      2.525212      2.298012      2.060100      2.069815      2.307425      2.327769      2.317339      2.080056      2.090840      1.844800      1.833625      1.579179      1.590781      1.568182      1.823022      1.812974      1.557769      1.295329      1.026268      1.037496      1.306136      1.329625      1.317560      1.049378      1.061940      0.788146      0.775056      0.494869      0.508514      0.481990      0.762687      0.751013      0.469847      0.182936      0.195565      -0.096522      -0.109648      -0.407907      -0.711904      -0.697777      -0.394280      -0.379784      -0.682738      -0.666741      -0.364379      -0.067763      -0.082573      0.208972      0.223193      0.238261      0.254213      -0.035405      -0.052053      -0.348022      -0.649742      -0.631693      -0.330671      -0.312279      -0.612545      -0.592248      -0.292802      0.000874      -0.017776      0.271085      0.288915      0.571390      0.554361      0.832026      0.848285      1.119481      1.384729      1.369883      1.103951      1.089201      1.355764      1.342352      1.075206      0.801985      0.522956      0.538228      0.816602      -5.970500      -6.397112      -6.372271      -5.945717      -5.529848      -5.123930      -5.148630      -5.554603      -5.578004      -5.172000      -5.194077      -5.600090      -6.015941      -5.993894      -6.420440      -6.442348      -6.462918      -6.036692      -6.056200      -6.482225      -6.500336      -6.517312      -6.091702      -6.074518      -5.658910      -5.676197      -5.270284      -5.252959      -5.234513      -5.640496      -5.620906      -5.214901      -4.818110      -4.430058      -4.449654      -4.837716      -4.856160      -4.873485      -4.485385      -4.468081      -4.088383      -4.105642      -3.733970      -3.716795      -3.698483      -4.069994      -4.050424      -3.678980      -3.658231      -3.636178      -4.007536      -4.029622      -4.409247      -4.797297      -4.775241      -4.387178      -4.363809      -4.751905      -4.727262      -4.339102      -3.959310      -3.587930      -3.612765      -3.984116      -2.894578      -3.249647      -3.224898      -2.870035      -2.523117      -2.183887      -2.207654      -2.547332      -2.570119      -2.230019      -2.251046      -2.591544      -2.939410      -2.917681      -3.272958      -3.294896      -3.315521      -2.959830      -2.979001      -3.334894      -3.353074      -3.370116      -3.013835      -2.996984      -2.648285      -2.664886      -2.323027      -2.306732      -2.289342      -2.630566      -2.611672      -2.270800      -1.936953      -1.609869      -1.627519      -1.955078      -1.972079      -1.988013      -1.659609      -1.644081      -1.322504      -1.337590      -1.021748      -1.007133      -0.991561      -1.306422      -1.289293      -0.974987      -0.957360      -0.938631      -1.251684      -1.271065      -1.591078      -1.917649      -1.897104      -1.571087      -1.549838      -1.875258      -1.852046      -1.527270      -1.209238      -0.897651      -0.918746      -1.231094      -1.326825      -1.645461      -1.608745      -1.291285      -0.981269      -0.678253      -0.711193      -1.015549      -1.048038      -0.742424      -0.772014      -1.078808      -1.392368      -1.713098      -1.680218      -1.360495      -1.451010      -1.773541      -1.744180      -1.422515      -1.107927      -0.800032      -0.826542      -1.135463      -1.161484      -0.851608      -0.875291      -1.186055      -1.503320      -1.827402      -1.801257      -1.477922      -3.170823      -3.198646      -2.843985      -2.816357      -2.470121      -2.497404      -2.158647      -2.131864      -2.073366      -2.103463      -2.441192      -2.410539      -2.756077      -2.787079      -3.141361      -3.110188      -3.042422      -3.077232      -2.723275      -2.688599      -2.343724      -2.378079      -2.041492      -2.007756      -1.934335      -1.972069      -2.307379      -2.268938      -2.613328      -2.651973      -3.005692      -2.966987      -4.126507      -4.520222      -4.488131      -4.090075      -3.703582      -3.329957      -3.368701      -3.741946      -3.778219      -3.405413      -3.440187      -3.812579      -4.194530      -4.584516      -4.552609      -4.161278      -4.256648      -4.645382      -4.615517      -4.226314      -3.845158      -3.473113      -3.504275      -3.876050      -3.905332      -3.533751      -3.561614      -3.933067      -4.313024      -4.701293      -4.673993      -4.285546      -6.317575      -6.345804      -5.919519      -5.891911      -5.476136      -5.503703      -5.097867      -5.070409      -5.011167      -5.041523      -5.447117      -5.416599      -5.832818      -5.862954      -6.287409      -6.255077      -6.182564      -6.220270      -5.801871      -5.770840      -5.350590      -5.384492      -4.979276      -4.945744      -4.872927      -4.910392      -5.314423      -5.274956      -5.715254      -5.741109      -6.141400      -6.096089      -6.046006      -5.698006      -5.174888      -5.229980      -4.832900      -4.789697      -4.742668      -3.909446      -3.964257      -4.414384      -4.431625      -4.457747      -4.051621      -4.010306      -3.619544      -3.662884      -3.289095      -3.246051      -3.200812      -3.573228      -3.523764      -3.153464      -3.104220      -3.053410      -3.471666      -2.284526      -2.643567      -2.231477      -1.854213      -1.549476      -1.605253      -1.922696      -1.983713      -1.659471      -1.711429      -2.039471      -2.388255      -2.337107      -2.694225      -2.743910      -2.792200      -2.437522      -2.484707      -2.838802      -2.883526      -2.926267      -2.572599      -2.529735      -2.185253      -2.228280      -1.894454      -1.852322      -1.807834      -2.139659      -2.091211      -1.760891      -1.440721      -1.129045      -1.172743      -1.486048      -1.529115      -1.569989      -1.253803      -1.214311      -0.907051      -0.945127      -0.643529      -0.606947      -0.568426      -0.866968      -0.824808      -0.527881      -0.485218      -0.440332      -0.733965      -0.780498      -1.083172      -1.393081      -1.343089      -1.035099      -0.984828      -1.290708      -1.235862      -0.932405      -0.633926      -0.343385      -0.393103      -0.685135      -0.136471      0.182804      0.099641      -0.180634      -0.263323      0.022645      -0.048664      -0.336039      -0.655710      -0.935763      -0.607746      -0.764626      -1.050739      -0.974758      -0.708058      -0.402518      -0.115039      -0.177196      -0.464854      -0.523958      -0.235707      -0.290998      -0.580244      -0.877961      -1.178301      -1.117275      -0.821800      -1.733494      -1.774287      -1.493832      -1.442085      -1.394054      -2.788361      -2.444280      -2.451158      -2.795357      -3.146294      -3.504196      -3.497007      -3.139193      -3.131508      -3.489225      -3.480816      -3.123204      -2.772609      -2.780789      -2.436839      -2.428800      -2.091561      -2.099442      -1.768402      -1.760693      -1.436015      -1.117368      -1.124703      -1.443541      -1.450515      -1.131502      -1.137797      -1.456968      -1.782147      -1.775543      -2.106739      -2.113486      -2.119713      -2.125450      -1.793865      -1.788245      -1.462929      -1.143615      -1.148982      -1.468425      -1.473483      -1.153923      -1.158462      -1.478127      -1.803780      -1.799035      -2.130726      -2.135566      -2.473654      -2.818230      -2.813220      -2.468724      -2.457505      -2.463350      -2.807756      -2.801812      -3.152844      -3.158875      -3.516934      -3.510828      -3.522545      -3.164418      -3.169501      -3.527690      -3.893038      -4.265804      -4.260569      -3.887842      -3.876007      -3.882175      -4.254858      -4.248643      -4.629013      -4.635260      -5.023675      -5.017413      -5.029430      -4.641000      -4.646263      -5.034706      -5.431441      -5.426168      -5.831537      -5.836791      -6.251089      -6.674677      -6.669524      -6.245874      -6.240188      -6.663905      -6.657791      -6.233999      -5.819571      -5.414155      -5.420416      -5.825807      -5.805456      -5.399986      -5.407356      -5.812798      -6.227279      -6.651152      -6.643957      -6.219994      -6.212110      -6.636171      -6.627761      -6.203593      -5.788925      -5.797510      -5.392009      -5.383391      -4.986634      -4.598310      -4.606911      -4.995256      -5.003236      -5.010610      -4.622227      -4.614872      -4.234575      -4.241893      -3.869309      -3.862046      -3.854187      -4.226655      -4.218097      -3.845693      -3.836528      -4.208864      -4.198915      -3.826653      -3.804604      -3.816026      -4.188211      -4.176709      -4.556724      -4.568279      -4.956532      -4.944952      -4.967311      -4.579034      -4.589031      -4.977332      -5.374094      -5.364078      -5.769685      -5.779663      -6.194404      -6.618689      -6.608918      -6.184505      -6.173855      -6.598406      -6.587111      -6.162412      -5.747418      -5.341728      -5.353303      -5.758951      -5.721779      -5.316000      -5.329308      -5.735043      -6.150132      -6.574992      -6.562001      -6.136969      -6.122876      -6.548091      -6.533212      -6.107803      -5.692404      -5.707582      -5.301757      -5.286534      -4.889739      -4.501615      -4.516816      -4.904965      -4.919213      -4.932527      -4.544324      -4.531037      -4.151133      -4.164365      -3.792344      -3.779198      -3.765121      -4.136968      -4.121820      -3.750061      -3.386075      -3.401005      -3.044368      -3.029612      -2.680428      -2.338281      -2.352547      -2.694962      -2.708540      -2.365877      -2.378320      -2.721213      -3.071022      -3.427983      -3.414958      -3.058154      -3.440128      -3.083019      -3.094192      -3.451440      -3.461964      -3.471742      -3.114243      -3.104586      -2.754270      -2.763782      -2.420127      -2.410783      -2.400728      -2.744033      -2.733029      -2.389922      -2.053473      -1.723471      -1.733808      -2.064056      -2.073905      -2.083061      -1.752381      -1.743432      -1.419176      -1.427905      -1.109469      -1.100972      -1.091845      -1.409794      -1.399722      -1.082051      -1.377349      -1.060315      -1.071554      -1.388920      -1.712381      -2.042114      -2.029935      -1.700494      -1.687767      -2.016891      -2.002933      -1.674155      -1.351728      -1.364966      -1.048296      -1.035455      -0.725162      -0.737592      -0.432717      -0.420707      -0.121987      0.171052      0.159882      -0.133576      -0.144448      0.149392      0.139552      -0.154637      -0.454516      -0.760127      -0.749234      -0.443975      -0.770308      -0.464377      -0.473590      -0.779815      -0.788680      -0.796937      -0.490203      -0.482188      -0.181425      -0.189196      0.106109      0.113639      0.121704      -0.173094      -0.164175      0.130333      0.419124      0.702107      0.694038      0.410780      0.402974      0.395680      0.679416      0.686482      0.963976      0.957129      1.228516      1.235156      1.242244      0.971292      0.979097      1.249800      0.996267      1.266398      1.257844      0.987415      0.710713      0.428032      0.437530      0.719881      0.729636      0.447646      0.458409      0.740005      1.015670      1.005678      1.275482      1.285119      1.547921      1.803461      1.794466      1.538617      1.529838      1.521564      1.777957      1.785970      2.033948      2.026174      2.265079      2.272635      2.280633      2.042183      2.050895      2.289087      2.516537      2.508315      2.723270      2.731287      2.930805      3.111834      3.104143      2.922965      2.915532      3.096848      3.089937      2.908495      2.708487      2.715674      2.500530      2.493170      2.486219      2.479664      2.695286      2.701695      2.901841      3.083399      3.077221      2.895558      2.889633      3.071393      3.065902      2.884054      2.683561      2.689245      2.473490      2.467685      2.238962      2.244905      2.005450      1.999354      1.750366      1.493136      1.499581      1.756629      1.763304      1.506455      1.513776      1.770407      2.018844      2.257948      2.251229      2.011941      1.983285      2.223274      2.218711      1.978619      1.729099      1.471294      1.476198      1.733880      1.739008      1.481462      1.487103      1.744498      1.993639      1.988287      2.228161      2.233385      2.462234      2.457123      2.673210      2.678221      2.878809      3.060737      3.055886      2.873885      2.869272      3.051337      3.047081      2.864956      2.664131      2.668518      2.452339      2.447870      2.443702      2.439824      2.656227      2.660038      2.860927      3.043105      3.039399      2.857174      2.853685      3.035954      3.032758      2.850452      2.649407      2.652687      2.436223      2.432889      2.203439      1.963023      1.966488      2.206835      2.214458      2.210504      1.970233      1.974272      1.724650      1.720517      1.462499      1.466733      1.458579      1.716688      1.713148      1.454958      1.189308      1.193017      0.920627      0.916826      0.637961      0.353023      0.357024      0.641860      0.646090      0.361367      0.366070      0.650667      0.929204      1.201375      1.197034      0.924748      0.950729      1.222305      1.216504      0.944756      0.939190      1.211093      1.206056      0.934012      0.371151      0.655609      0.660935      0.376632      0.382532      0.666664      0.672818      0.388874      -0.196435      0.099089      0.092552      -0.203170      -0.209427      0.086476      0.080836      -0.215230      -0.824509      -0.517006      -0.511038      -0.818376      -0.811756      -0.504600      -0.497664      -0.804619      -0.527628      -0.835414      -0.830179      -0.522528      -0.220603      0.075610      0.070777      -0.225568      -0.230148      0.066317      0.062211      -0.234362      -0.536651      -0.532329      -0.840235      -0.844667      -0.848729      -0.852443      -0.544242      -0.540616      -0.238229      0.058440      0.054988      -0.241768      -0.244994      0.051838      0.048976      -0.247925      -0.550547      -0.858895      -0.855826      -0.547547      -0.861668      -0.553258      -0.555693      -0.864158      -0.866379      -0.868343      -0.559789      -0.557866      -0.255082      -0.256963      0.040140      0.041980      0.044059      -0.252956      -0.250575      0.046387      0.337579      0.622885      0.620659      0.335303      0.333270      0.331469      0.616908      0.618670      0.897978      0.896252      1.169191      1.170882      1.172788      0.899925      0.902102      1.174919      0.907188      1.179894      1.177284      0.904519      0.625357      0.340108      0.342904      0.628088      0.631090      0.345979      0.349347      0.634376      0.913328      0.910120      1.182760      1.185894      1.451622      1.709886      1.706888      1.448559      1.445756      1.443201      1.701640      1.704143      1.954199      1.951744      2.192369      2.194781      2.197423      1.956890      1.959828      2.200306      2.429811      2.426977      2.643586      2.646377      2.847463      3.029803      3.027079      2.844709      2.842181      3.024578      3.022291      2.839871      2.638687      2.641026      2.424378      2.422005      2.419850      2.417903      2.634641      2.636561      2.837771      3.020212      3.018331      2.835872      2.834169      3.016644      3.015143      2.832655      2.631387      2.632918      2.416157      2.414607      2.184857      2.186430      1.945704      1.944105      1.693861      1.435270      1.436928      1.695488      1.697322      1.438797      1.440885      1.699370      1.949516      2.190179      2.188202      1.947505      1.940454      2.181262      2.180422      1.939601      1.689281      1.430608      1.431490      1.690148      1.691197      1.432557      1.433816      1.692433      1.942701      1.941485      2.182278      2.183474      2.413244      2.412064      2.628876      2.630042      2.831324      3.013823      3.012679      2.830170      2.829190      3.011707      3.010903      2.828380      2.627067      2.627886      2.411062      2.410233      2.409575      2.409083      2.625931      2.626416      2.827735      3.010264      3.009786      2.827254      2.826935      3.009469      3.009311      2.826775      2.625447      2.625608      2.408757      2.408594      2.178761      1.937915      1.938083      2.178926      2.179754      2.179256      1.938418      1.938924      1.688593      1.688079      1.429385      1.429908      1.429039      1.687738      1.687568      1.428866      1.162666      1.162842      0.889779      0.889600      0.610120      0.324541      0.324728      0.610303      0.610670      0.325102      0.325665      0.611222      0.890681      1.163727      1.163195      0.890139      0.894740      1.167708      1.166426      0.893432      0.892323      1.165338      1.164440      0.891407      0.326421      0.611964      0.612897      0.327374      0.328529      0.614029      0.615363      0.329892      -0.258610      0.038528      0.037136      -0.260031      -0.261235      0.035957      0.034985      -0.262228      -0.873832      -0.565166      -0.564152      -0.872798      -0.871543      -0.562923      -0.561471      -0.870061      -0.566569      -0.875264      -0.874653      -0.565970      -0.263016      0.034213      0.033638      -0.263603      -0.263992      0.033256      0.033066      -0.264186      -0.567164      -0.566966      -0.875669      -0.875871      -1.190352      -1.510687      -1.510477      -1.190146      -1.189109      -1.189732      -1.510056      -1.509421      -1.835700      -1.836346      -2.168738      -2.168080      -2.169174      -1.836775      -1.836988      -2.169391      -2.508054      -2.507834      -2.852934      -2.853158      -3.204901      -3.563500      -3.563271      -3.204675      -3.204220      -3.562812      -3.562119      -3.203534      -2.851808      -2.852485      -2.507391      -2.506723      -2.505826      -2.504694      -2.849750      -2.850899      -3.202613      -3.561187      -3.560012      -3.201450      -3.200039      -3.558585      -3.556897      -3.198370      -2.846709      -2.848357      -2.503321      -2.501696      -2.163132      -2.164731      -1.832407      -1.830836      -1.504646      -1.184425      -1.185938      -1.506188      -1.507493      -1.187218      -1.188273      -1.508569      -1.834831      -2.167197      -2.166083      -1.833736      -1.812090      -2.144040      -2.139997      -1.808124      -1.482380      -1.162621      -1.166421      -1.486265      -1.489801      -1.169881      -1.173020      -1.493006      -1.818970      -2.151051      -2.147718      -1.815699      -1.824569      -2.156753      -2.154057      -1.821921      -1.495900      -1.175854      -1.178398      -1.498497      -1.500811      -1.180666      -1.182671      -1.502857      -1.829013      -2.161278      -2.159155      -1.826928      -3.552695      -3.554938      -3.196432      -3.194214      -2.842607      -2.844796      -2.499811      -2.497654      -2.492470      -2.495212      -2.840128      -2.837344      -3.188881      -3.191702      -3.550154      -3.547301      -3.540586      -3.544117      -3.185735      -3.182244      -2.830796      -2.834240      -2.489413      -2.486022      -2.478164      -2.482280      -2.826995      -2.822814      -3.174150      -3.178390      -3.536686      -3.532395      -4.655464      -5.043930      -5.039531      -4.651075      -4.270592      -3.897790      -3.902123      -4.274958      -4.278926      -3.906061      -3.909627      -4.282518      -4.663062      -5.051546      -5.047927      -4.659451      -4.669231      -5