<VTKFile type="UnstructuredGrid" version="1.0" byte_order="LittleEndian" header_type="UInt64">
  <UnstructuredGrid>
    <Piece NumberOfPoints="33434" NumberOfCells="16200">
      <CellData Scalars="Scalars_">
        <DataArray type="Float32" Name="Scalars_" format="ascii">
     12.479220      12.479281      12.444074      12.444013      12.381259      12.299969      12.300030      12.381321      12.381443      12.300152      12.300335      12.381628      12.444384      12.444198      12.479405      12.479592      12.479842      12.480157      12.444946      12.444633      12.381876      12.300582      12.300893      12.382189      12.382566      12.301270      12.301713      12.383013      12.445775      12.445327      12.480538      12.480989      12.481508      12.482101      12.446885      12.446294      12.383530      12.302228      12.302814      12.384118      12.384783      12.303476      12.304217      12.385526      12.448298      12.447552      12.482770      12.483517      12.484346      12.485260      12.450037      12.449124      12.386351      12.305040      12.305948      12.387260      12.388260      12.306946      12.308038      12.389353      12.452132      12.451038      12.486263      12.487360      12.488553      12.489848      12.454618      12.453324      12.390543      12.309228      12.310520      12.391835      12.393234      12.311921      12.313435      12.394746      12.457529      12.456018      12.491249      12.492761      12.494389      12.496137      12.460905      12.459156      12.396374      12.315065      12.316820      12.398125      12.400002      12.318705      12.320724      12.402014      12.464787      12.462780      12.498012      12.500017      12.502160      12.504445      12.469220      12.466932      12.404164      12.322883      12.325189      12.406459      12.408903      12.327647      12.330265      12.411505      12.474247      12.471656      12.506878      12.509464      12.512210      12.515121      12.479915      12.476998      12.414268      12.333047      12.336000      12.417199      12.420304      12.339130      12.342443      12.423589      12.486269      12.483004      12.518201      12.521458      12.452097      12.371269      12.376260      12.457023      12.519435      12.554491      12.549636      12.514556      12.509896      12.544997      12.540571      12.505452      12.442912      12.447395      12.366508      12.361970      12.357650      12.438643      12.434581      12.353543      12.349645      12.345946      12.427059      12.430721      12.493355      12.489717      12.524896      12.528522      12.532339      12.497186      12.501217      12.536354      12.386948      12.381484      12.462175      12.467562      12.529869      12.524538      12.559568      12.564871      12.576171      12.570404      12.535433      12.541233      12.479050      12.473186      12.392654      12.398610      12.411279      12.404817      12.485159      12.491517      12.553555      12.547273      12.582174      12.588418      12.601637      12.594905      12.560083      12.566861      12.504990      12.498126      12.417999      12.424982      12.560304      12.481361      12.490497      12.569252      12.630216      12.664511      12.655770      12.621403      12.612844      12.647281      12.639043      12.604542      12.543191      12.551616      12.472496      12.463902      12.455579      12.535028      12.527127      12.447526      12.439744      12.432230      12.512110      12.519488      12.581170      12.573889      12.608617      12.615846      12.623326      12.588705      12.596496      12.631059      12.509573      12.499902      12.578462      12.587929      12.648601      12.639282      12.673502      12.682740      12.701949      12.692224      12.658168      12.667980      12.607625      12.597651      12.519508      12.529704      12.550859      12.540156      12.617846      12.628311      12.688323      12.678034      12.711913      12.722109      12.743174      12.732532      12.698844      12.709587      12.649942      12.639012      12.561808      12.572993      11.308891      11.190017      11.208573      11.326068      11.443316      11.560238      11.545285      11.427336      11.411916      11.530826      11.516860      11.397054      11.276472      11.292361      11.172215      11.155156      11.033049      11.051419      10.929771      10.909965      10.785559      10.659286      10.682093      10.806881      10.829402      10.706308      10.732045      10.853184      10.972476      10.950596      11.070657      11.090784      11.111822      11.133787      11.019533      10.995445      10.878284      10.759419      10.788533      10.904748      10.932600      10.819445      10.852115      10.961843      11.071142      11.044760      11.156692      11.180543      11.290505      11.401253      11.381494      11.268862      11.247992      11.227896      11.343894      11.362371      11.476952      11.459856      11.575680      11.591605      11.608003      11.494594      11.512771      11.624860      11.737203      11.849400      11.834567      11.721446      11.706094      11.691159      11.806005      11.820098      11.933217      11.919842      12.032200      12.044956      12.058032      11.946936      11.960986      12.071414      12.180012      12.167205      12.273604      12.285913      12.387941      12.484442      12.472940      12.376067      12.364451      12.461687      12.450688      12.353102      12.249814      12.142465      12.154686      12.261569      12.227176      12.118947      12.130549      12.238348      12.342027      12.439950      12.429480      12.331230      12.320719      12.419280      12.409355      12.310495      12.205734      12.216303      12.107661      12.096697      11.984503      11.869934      11.881861      11.995916      12.019770      12.007673      11.894157      11.906819      11.792296      11.778981      11.662581      11.676653      11.648950      11.766066      11.753551      11.635762      11.623018      11.741443      11.729739      11.610718      11.598859      11.587439      11.707543      11.718440      11.836394      11.825961      11.942324      11.952346      11.962716      11.847200      11.858380      11.973435      12.086058      12.075745      12.185516      12.195471      12.300562      12.399709      12.390342      12.290922      12.281577      12.381256      12.372452      12.272526      12.166536      12.056102      12.065760      12.175872      12.148793      12.037766      12.046771      12.157511      12.263769      12.363930      12.355689      12.255306      12.247136      12.347729      12.340047      12.239257      12.132277      12.140383      12.029083      12.020721      11.905685      11.787913      11.796879      11.914332      11.932649      11.923319      11.806207      11.815900      11.697047      11.686947      11.565896      11.576453      11.555763      11.677238      11.667917      11.546046      11.422533      11.297526      11.308170      11.432689      11.454366      11.443297      11.319306      11.330945      11.206284      11.194010      11.067437      11.080408      11.055080      11.182291      11.171112      11.043317      10.914124      10.926513      10.796517      10.783468      10.651253      10.517355      10.531752      10.664978      10.679491      10.547000      10.563146      10.694833      10.824811      10.810287      10.939558      10.953283      10.967716      10.982882      10.856255      10.840121      10.711044      10.580238      10.598333      10.728171      10.746264      10.617492      10.637782      10.765373      10.891137      10.873246      10.998807      11.015520      11.138824      11.123202      11.246580      11.261215      11.382749      11.503388      11.490407      11.368992      11.355779      11.477914      11.465901      11.343100      11.219128      11.094013      11.108272      11.232554      11.114515      10.984144      10.992743      11.122778      11.251270      11.378183      11.370527      11.243322      11.235779      11.363251      11.356341      11.228627      11.099275      11.106687      10.976009      10.968321      10.835774      10.843754      10.709899      10.701616      10.565812      10.428311      10.437215      10.574404      10.583537      10.446693      10.456776      10.593237      10.728011      10.718689      10.852210      10.861163      10.870633      10.880642      10.748347      10.737889      10.603533      10.467491      10.478873      10.614451      10.626023      10.490954      10.503769      10.638280      10.771110      10.759412      10.891212      10.902364      11.032128      11.160458      11.150311      11.021496      11.011399      11.001822      11.131488      11.140660      11.268431      11.259635      11.386230      11.394677      11.403537      11.277669      11.287364      11.412818      11.536738      11.658977      11.650411      11.527832      11.519319      11.511189      11.634375      11.642213      11.763133      11.755560      11.874408      11.881740      11.889394      11.771046      11.779304      11.897373      12.012678      12.004949      12.116968      12.124473      12.231666      12.332642      12.325511      12.224360      12.217337      12.318651      12.312058      12.210592      12.102839      11.990414      11.997529      12.109757      12.089854      11.977078      11.983599      12.096206      12.204122      12.305731      12.299664      12.197922      12.191987      12.293852      12.288292      12.186313      12.077975      12.083779      11.970846      11.964897      11.848168      11.728527      11.734811      11.854278      11.867391      11.860682      11.741406      11.748321      11.626890      11.619750      11.496050      11.503437      11.489019      11.612947      11.606471      11.482336      11.475989      11.600314      11.594468      11.469970      11.464266      11.458869      11.583670      11.588923      11.711462      11.706342      11.826551      11.831548      11.836811      11.716860      11.722546      11.842349      11.959225      11.953822      12.067157      12.072436      12.180894      12.282978      12.277905      12.175724      12.170798      12.273068      12.268462      12.166111      12.057350      11.943800      11.948683      12.062130      12.048503      11.934772      11.939165      12.052810      12.161655      12.264080      12.259916      12.157425      12.153413      12.255966      12.252222      12.149614      12.040560      12.044421      11.930614      11.926682      11.809075      11.688478      11.692569      11.813084      11.821814      11.817327      11.696904      11.701492      11.578699      11.574001      11.448952      11.453768      11.444411      11.569567      11.565386      11.440135      11.312943      11.183950      11.188436      11.317321      11.326917      11.321975      11.193210      11.198285      11.067956      11.062738      10.930607      10.935971      10.925573      11.057838      11.053240      10.920856      10.786818      10.791656      10.656083      10.651118      10.513741      10.374656      10.379876      10.518833      10.524289      10.385477      10.391479      10.530128      10.667073      10.661395      10.796827      10.802346      10.808230      10.814498      10.679601      10.673135      10.536372      10.397904      10.404777      10.543040      10.550154      10.412118      10.419954      10.557737      10.693821      10.686489      10.821165      10.828251      10.961061      10.954212      11.085643      11.092264      11.221854      11.349790      11.343582      11.215446      11.209391      11.337708      11.332157      11.203674      11.073503      10.941684      10.947759      11.079393      8.094783      7.921153      7.930519      8.104164      8.275000      8.443169      8.433776      8.265600      8.256845      8.425016      8.416863      8.248707      8.077957      8.086057      7.912483      7.904460      7.897040      8.070450      8.063502      7.890183      7.883852      7.878013      8.051154      8.057081      8.227682      8.221702      8.389750      8.395761      8.402266      8.234156      8.241154      8.409289      8.574969      8.738288      8.731246      8.567934      8.561416      8.555387      8.718684      8.724721      8.885736      8.879701      9.038483      9.044502      9.051009      8.892259      8.899299      9.058031      9.065601      9.073750      8.915050      8.906885      8.745875      8.582550      8.590704      8.754035      8.762796      8.599456      8.608829      8.772185      8.933233      9.091916      9.082510      8.923822      9.392911      9.238862      9.248222      9.402184      9.553855      9.703296      9.694311      9.544707      9.536189      9.685940      9.678147      9.528264      9.376248      9.384277      9.230147      9.222043      9.214516      9.368789      9.361866      9.207531      9.201060      9.195071      9.349509      9.355450      9.507719      9.501845      9.652129      9.657920      9.664168      9.514060      9.520898      9.670900      9.818855      9.964828      9.958358      9.812246      9.806108      9.800414      9.946755      9.952343      10.096679      10.091209      10.233827      10.239174      10.244917      10.102562      10.108882      10.251081      10.257687      10.264761      10.122936      10.115664      9.971778      9.825962      9.833598      9.979239      9.987239      9.841795      9.850584      9.995810      10.139060      10.280417      10.272328      10.130725      10.074661      9.931820      9.946738      10.089077      10.229271      10.367467      10.354104      10.215375      10.202303      10.341521      10.329682      10.190016      10.048393      9.904690      9.917820      10.061113      10.025271      9.880863      9.892385      10.036459      10.178475      10.318549      10.308088      10.167645      10.157487      10.298267      10.289054      10.147970      10.004982      9.860002      9.870082      10.014791      9.269024      9.258264      9.412134      9.422799      9.574186      9.563668      9.712929      9.723250      9.746116      9.734298      9.585450      9.597504      9.446437      9.434219      9.280543      9.292862      9.320063      9.306021      9.459495      9.473435      9.624164      9.610393      9.758747      9.772240      9.802010      9.786642      9.638871      9.654572      9.504143      9.488304      9.335027      9.350948      8.857093      8.691749      8.705083      8.872179      9.035666      9.194967      9.178980      9.019802      9.004937      9.163975      9.149902      8.990990      8.829264      8.665334      8.678384      8.842807      8.804338      8.640825      8.652782      8.816444      8.977898      9.136713      9.124362      8.965613      8.954097      9.112804      9.102002      8.943315      8.782225      8.618842      8.629507      8.792936      7.951581      7.940639      8.114223      8.124971      8.295830      8.285069      8.453220      8.463953      8.487557      8.475390      8.307302      8.319510      8.148413      8.136390      7.963423      7.976269      8.005515      7.990245      8.160886      8.173491      8.346317      8.332488      8.500486      8.514223      8.544451      8.528842      8.361187      8.377511      8.196224      8.185635      8.022286      8.040796      8.061235      8.203295      8.418981      8.396170      8.561213      8.579343      8.599039      8.948020      8.924941      8.735922      8.728702      8.717769      8.888215      8.905547      9.070844      9.052637      9.211982      9.230055      9.249188      9.090417      9.111403      9.269337      9.290380      9.312118      9.133526      9.643595      9.488282      9.666564      9.831306      9.965470      9.941148      9.801393      9.774930      9.917671      9.895354      9.750939      9.598890      9.620879      9.466478      9.445123      9.424459      9.577843      9.557828      9.404640      9.385756      9.367854      9.520990      9.538878      9.689226      9.671331      9.818398      9.835867      9.854478      9.708356      9.728859      9.874291      10.016541      10.156275      10.137964      9.997477      9.979518      9.962621      10.104405      10.120687      10.259700      10.244032      10.381650      10.396695      10.412645      10.276317      10.293925      10.429549      10.447458      10.466429      10.332295      10.312571      10.175651      10.036751      10.058135      10.196118      10.217690      10.080720      10.104549      10.240358      10.375170      10.507825      10.486526      10.353146      10.595712      10.741155      10.703403      10.575787      10.538581      10.668732      10.636857      10.506022      10.362430      10.237453      10.383850      10.313979      10.186166      10.220026      10.339093      10.476454      10.607404      10.580024      10.448912      10.422967      10.554434      10.530421      10.398421      10.264081      10.129741      10.156640      10.288728      9.884323      9.866371      9.989874      10.012671      10.033866      9.460883      9.611573      9.609459      9.458760      9.306101      9.151437      9.153567      9.308229      9.310566      9.155909      9.158477      9.313128      9.465764      9.463212      9.613891      9.616427      9.765163      9.762647      9.909521      9.912017      10.057028      10.200236      10.197794      10.054558      10.052294      10.195554      10.193501      10.050223      9.905149      9.907237      9.760344      9.758242      9.756326      9.754581      9.901509      9.903245      10.048331      10.191624      10.189911      10.046607      10.045038      10.188351      10.186934      10.043613      9.898502      9.899933      9.752998      9.751564      9.602759      9.452046      9.453485      9.604197      9.607533      9.605783      9.455074      9.456828      9.304166      9.302410      9.147747      9.149502      9.146160      9.300820      9.299383      9.144727      8.988030      8.829250      8.830670      8.989459      8.992792      8.991041      8.832246      8.833989      8.673045      8.671312      8.508193      8.509912      8.506642      8.669748      8.668339      8.505246      8.339925      8.341304      8.173682      8.172322      8.002388      7.830069      7.831377      8.003724      8.005211      7.832834      7.834453      8.006863      8.176873      8.344539      8.342838      8.175195      8.180788      8.348501      8.346421      8.178733      8.008693      7.836248      7.838234      8.010717      8.012951      7.840427      7.842844      8.015411      8.185550      8.183054      8.350793      8.353315      8.518766      8.681956      8.679399      8.516224      8.513912      8.511813      8.674961      8.677073      8.838037      8.835915      8.994724      8.996852      8.999192      8.840372      8.842937      9.001761      9.004578      8.845751      8.848831      9.007659      9.014699      9.011025      8.852199      8.855874      8.694865      8.691195      8.527964      8.531621      8.524616      8.687834      8.684761      8.521557      8.356086      8.359124      8.191301      8.188293      8.018117      7.845503      7.848423      8.021088      8.024343      7.851624      7.855126      8.027904      8.198202      8.366087      8.362451      8.194597      8.206431      8.374380      8.370055      8.202139      8.031795      7.858954      7.863131      8.036039      8.040662      7.867681      7.872632      8.045691      8.216186      8.211104      8.379087      8.384201      8.549818      8.713107      8.707963      8.544684      8.539957      8.535611      8.698867      8.703225      8.864241      8.859880      9.018701      9.023055      9.027786      8.868980      8.874125      9.032920      9.189535      9.184425      9.338943      9.344017      9.496410      9.646767      9.641807      9.491387      9.486752      9.637225      9.632998      9.482478      9.329953      9.175376      9.179714      9.334264      9.171388      9.325987      9.322342      9.167725      9.164365      9.161289      9.315932      9.318997      9.471601      9.468554      9.619199      9.622223      9.625518      9.474924      9.478542      9.629103      9.777713      9.924421      9.920922      9.774168      9.770907      9.767912      9.914738      9.917701      10.062645      10.059718      10.202894      10.205782      10.208916      10.065824      10.069272      10.212310      10.077049      10.219953      10.215983      10.073008      9.928215      9.781561      9.785733      9.932324      9.936770      9.790251      9.795136      9.941573      10.086129      10.081416      10.224236      10.228855      10.369796      10.365275      10.504573      10.508993      10.646483      10.782294      10.778072      10.642163      10.638140      10.774136      10.770470      10.634398      10.496644      10.357183      10.361077      10.500463      10.353575      10.493102      10.489820      10.350236      10.347151      10.344303      10.483979      10.486784      10.624713      10.621950      10.758239      10.760958      10.763894      10.627699      10.630922      10.767060      10.901528      11.034328      11.031274      10.898419      10.895532      10.892855      11.025799      11.028434      11.159644      11.157049      11.286559      11.289116      11.291863      11.162437      11.165439      11.294813      11.172108      11.301357      11.297975      11.168658      11.037609      10.904873      10.908464      11.041128      11.044898      10.912316      10.916443      11.048931      11.179742      11.175798      11.304973      11.308830      11.436113      11.561450      11.557749      11.432336      11.428792      11.425473      11.551014      11.554273      11.677580      11.674377      11.795229      11.798379      11.801731      11.680991      11.684621      11.805294      11.922970      11.919469      12.033465      12.036910      12.146021      12.248678      12.245328      12.142626      12.139424      12.242165      12.239183      12.136408      12.027162      12.030218      11.916171      11.913071      11.910158      11.907427      12.021592      12.024288      12.133570      12.236376      12.233737      12.130904      12.128404      12.231259      12.228937      12.126062      12.016700      12.019065      11.904869      11.902477      11.784493      11.786913      11.665938      11.663486      11.539958      11.414242      11.416762      11.542443      11.545108      11.419468      11.422368      11.547962      11.671375      11.792274      11.789504      11.668565      11.657105      11.778181      11.776369      11.655276      11.531656      11.405843      11.407708      11.533503      11.535497      11.409724      11.411900      11.537645      11.661202      11.659078      11.780134      11.782236      11.900246      11.898165      12.012428      12.014490      12.123872      12.226765      12.224734      12.121828      12.119924      12.222841      12.221080      12.118152      12.008726      12.010509      11.896230      11.894433      11.892767      11.891227      12.005541      12.007071      12.116507      12.219442      12.217925      12.114984      12.113576      12.216522      12.215227      12.112278      12.002825      12.004127      11.889806      11.888498      11.770396      11.649263      11.650584      11.771711      11.774691      11.773140      11.652023      11.653584      11.529950      11.528376      11.402534      11.404121      11.401076      11.526928      11.525599      11.399738      11.271904      11.273250      11.143592      11.142237      11.010823      10.877714      10.879087      11.012188      11.013680      10.880591      10.882235      11.015308      11.146687      11.276320      11.274719      11.145073      11.154640      11.284184      11.281981      11.152410      11.150347      11.279943      11.278058      11.148441      10.884025      11.017081      11.019007      10.885972      10.888085      11.021095      11.023355      10.890376      10.619400      10.755724      10.753403      10.617047      10.614882      10.751263      10.749294      10.612891      10.335017      10.474806      10.476817      10.337050      10.339267      10.479009      10.481392      10.341681      10.471275      10.331457      10.333157      10.472961      10.611065      10.747486      10.745829      10.609393      10.607865      10.744312      10.742929      10.606473      10.468335      10.469736      10.329907      10.328497      10.327218      10.326060      10.465909      10.467062      10.605206      10.741670      10.740527      10.604058      10.603022      10.739494      10.738563      10.602087      10.463932      10.324078      10.325016      10.464869      10.323238      10.463094      10.462347      10.322492      10.321831      10.321252      10.461107      10.461687      10.599844      10.599264      10.735742      10.736322      10.736982      10.600505      10.601251      10.737727      10.872534      11.005665      11.004922      10.871789      10.871129      10.870549      11.003681      11.004262      11.135697      11.135117      11.264806      11.265387      11.266046      11.136356      11.137099      11.266787      11.138851      11.268535      11.267615      11.137929      11.006496      10.873367      10.874295      11.007422      11.008448      10.875325      10.876462      11.009579      11.140999      11.139873      11.269552      11.270674      11.398515      11.524382      11.523271      11.397399      11.396385      11.395468      11.521345      11.522261      11.645939      11.645026      11.766174      11.767085      11.768089      11.646946      11.648052      11.769191      11.887298      11.886199      12.000533      12.001628      12.111085      12.214037      12.212945      12.109992      12.108994      12.211947      12.211040      12.108087      11.998626      11.999534      11.885198      11.884289      11.883468      11.882730      11.997067      11.997805      12.107266      12.210219      12.209479      12.106527      12.105868      12.208819      12.208234      12.105285      11.995826      11.996408      11.882071      11.881489      11.763373      11.763956      11.642805      11.642224      11.518541      11.392661      11.393242      11.519122      11.519781      11.393901      11.394641      11.520520      11.644202      11.765352      11.764614      11.643464      11.640906      11.762054      11.761749      11.640601      11.516921      11.391044      11.391348      11.517226      11.517595      11.391717      11.392154      11.518033      11.641715      11.641277      11.762426      11.762865      11.880980      11.880540      11.994875      11.995316      12.104774      12.207722      12.207279      12.104332      12.103958      12.206904      12.206594      12.103650      11.994195      11.994503      11.880168      11.879862      11.879619      11.879437      11.993771      11.993952      12.103406      12.206349      12.206166      12.103224      12.103103      12.206045      12.205985      12.103043      11.993589      11.993649      11.879317      11.879258      11.761147      11.640000      11.640060      11.761207      11.761506      11.761326      11.640180      11.640360      11.516680      11.516500      11.390624      11.390803      11.390506      11.516381      11.516322      11.390447      11.262595      11.262654      11.132970      11.132911      11.001480      10.868353      10.868411      11.001539      11.001657      10.868528      10.868705      11.001834      11.133265      11.262951      11.262773      11.133087      11.134610      11.264298      11.263863      11.134174      11.133807      11.263494      11.263191      11.133505      10.868943      11.002072      11.002374      10.869244      10.869610      11.002741      11.003176      10.870044      10.598760      10.735237      10.734804      10.598328      10.597963      10.734439      10.734138      10.597665      10.319659      10.459511      10.459808      10.319957      10.320318      10.460172      10.460604      10.320749      10.459101      10.319251      10.319425      10.459275      10.597428      10.733902      10.733726      10.597253      10.597136      10.733609      10.733551      10.597079      10.458927      10.458985      10.319136      10.319078      10.177508      10.034187      10.034244      10.177565      10.177853      10.177680      10.034358      10.034531      9.889424      9.889253      9.742330      9.742499      9.742217      9.889139      9.889083      9.742161      9.593382      9.593437      9.442761      9.442707      9.290093      9.135498      9.135552      9.290148      9.290257      9.135660      9.135824      9.290422      9.443040      9.442872      9.593550      9.593719      9.593946      9.594236      9.443553      9.443266      9.290647      9.136045      9.136326      9.290931      9.291278      9.136670      9.137080      9.291694      9.444323      9.443904      9.594590      9.595012      9.743802      9.743378      9.890307      9.890734      10.035846      10.179173      10.178743      10.035418      10.035057      10.178382      10.178086      10.034762      9.889656      9.742729      9.743021      9.889949      9.896042      9.749100      9.750268      9.897209      10.042323      10.185648      10.184486      10.041159      10.040110      10.183440      10.182500      10.039169      9.894051      9.747109      9.748050      9.894992      9.892466      9.745527      9.746271      9.893211      10.038329      10.181660      10.180913      10.037582      10.036923      10.180253      10.179675      10.036345      9.891232      9.744298      9.744872      9.891809      9.138120      9.137563      9.292179      9.292743      9.445380      9.444813      9.595505      9.596076      9.597469      9.596728      9.446029      9.446767    