<VTKFile type="UnstructuredGrid" version="1.0" byte_order="LittleEndian" header_type="UInt64">
  <UnstructuredGrid>
    <Piece NumberOfPoints="33434" NumberOfCells="16200">
      <CellData Scalars="Scalars_">
        <DataArray type="Float32" Name="Scalars_" format="ascii">
     -85.971161      -85.971191      -85.801384      -85.801254      -84.908211      -80.356781      -80.360069      -84.908875      -84.910210      -80.366676      -80.376640      -84.912231      -85.802040      -85.801651      -85.971252      -85.971344      -85.971466      -85.971626      -85.803238      -85.802574      -84.914940      -80.390038      -80.406967      -84.918365      -84.922531      -80.427551      -80.451958      -84.927452      -85.805016      -85.804054      -85.971817      -85.972038      -85.972298      -85.972595      -85.807411      -85.806129      -84.933182      -80.480392      -80.513069      -84.939735      -84.947151      -80.550179      -80.591942      -84.955475      -85.810471      -85.808853      -85.972939      -85.973312      -85.973740      -85.974205      -85.814262      -85.812271      -84.964729      -80.638542      -80.690208      -84.974953      -84.986183      -80.747192      -80.809761      -84.998451      -85.818825      -85.816444      -85.974716      -85.975273      -85.975876      -85.976532      -85.824219      -85.821419      -85.011795      -80.878136      -80.952530      -85.026237      -85.041801      -81.033180      -81.120262      -85.058510      -85.830482      -85.827240      -85.977242      -85.978004      -85.978813      -85.979683      -85.837639      -85.833946      -85.076370      -81.213905      -81.314224      -85.095383      -85.115540      -81.421227      -81.534882      -85.136810      -85.845688      -85.841553      -85.980598      -85.981575      -85.982597      -85.983681      -85.854614      -85.850044      -85.159172      -81.655045      -81.781479      -85.182579      -85.206970      -81.913811      -82.051498      -85.232285      -85.864349      -85.859383      -85.984802      -85.985977      -85.987198      -85.988457      -85.874825      -85.869507      -85.258423      -82.193893      -82.340141      -85.285316      -85.312843      -82.489243      -82.640053      -85.340927      -85.885918      -85.880302      -85.989754      -85.991081      -85.545036      -83.664871      -83.803467      -85.574295      -85.933365      -86.002319      -86.000916      -85.927406      -85.921402      -85.999496      -85.998070      -85.915382      -85.486183      -85.515633      -83.524658      -83.382507      -83.238068      -85.456764      -85.427452      -83.091187      -82.942078      -82.791382      -85.369446      -85.398315      -85.897484      -85.891655      -85.992447      -85.993828      -85.995232      -85.903404      -85.909378      -85.996651      -84.076523      -83.940666      -85.603310      -85.631958      -85.945045      -85.939255      -86.003708      -86.005066      -86.007690      -86.006401      -85.950706      -85.956215      -85.687622      -85.660110      -84.210938      -84.343620      -84.601776      -84.474113      -85.714355      -85.740166      -85.966675      -85.961540      -86.008942      -86.010147      -86.012405      -86.011299      -85.971581      -85.976250      -85.788483      -85.764915      -84.725838      -84.845383      -85.915825      -85.491608      -85.555283      -85.928848      -86.004440      -86.019096      -86.018471      -86.001801      -85.998909      -86.017784      -86.017036      -85.995781      -85.886154      -85.901611      -85.421745      -85.344833      -85.260201      -85.869385      -85.851242      -85.167564      -85.067131      -84.959457      -85.810768      -85.831703      -85.984840      -85.980675      -86.013451      -86.014435      -86.015358      -85.988747      -85.992393      -86.016228      -85.666473      -85.613434      -85.940727      -85.951508      -86.009026      -86.006844      -86.019676      -86.020195      -86.021080      -86.020660      -86.010986      -86.012741      -85.969902      -85.961220      -85.714592      -85.757896      -85.830490      -85.796478      -85.977615      -85.984428      -86.015678      -86.014305      -86.021454      -86.021790      -86.022331      -86.022079      -86.016899      -86.017960      -85.995598      -85.990395      -85.860191      -85.885948      14.291700      14.394217      14.372809      14.279957      14.255837      14.300552      14.294577      14.258239      14.262174      14.290289      14.287517      14.267434      14.318679      14.304683      14.416479      14.439370      14.623240      14.591534      14.821815      14.862204      15.147833      15.472370      15.414978      15.098881      15.049050      15.356016      15.295675      14.998597      14.740379      14.781123      14.560009      14.528910      14.498511      14.469117      14.659948      14.699876      14.947845      15.234234      15.172117      14.897200      14.847118      15.109938      15.048434      14.798111      14.583428      14.620986      14.441073      14.414774      14.301353      14.250529      14.254667      14.316455      14.333627      14.352516      14.269686      14.261158      14.256540      14.255194      14.308402      14.318322      14.330527      14.260140      14.266270      14.345251      14.469924      14.605844      14.583924      14.450627      14.433133      14.417394      14.542341      14.562201      14.497003      14.499457      14.151797      13.513547      12.726405      14.524888      14.596725      12.041197      2.194758      17.690256      -66.219315      -69.899437      -82.751259      -85.350998      -85.221962      -82.079857      -81.313774      -85.071983      -84.900841      -80.478363      -59.312847      22.731483      22.681686      -62.630283      -53.060352      18.562483      20.911173      -56.200623      -79.592712      -84.709274      -84.498253      -78.662872      -77.676392      -84.268181      -84.017944      -76.594315      -44.768436      -49.480480      16.258966      14.246196      14.924361      14.583248      14.565579      14.930927      14.585244      14.831727      14.542591      14.518223      14.525050      14.510401      14.391073      14.403385      14.380398      14.498121      14.487781      14.371268      14.363574      14.478931      14.471197      14.357195      14.352011      14.347898      14.457996      14.464284      14.595494      14.589256      14.541141      14.631444      14.742105      14.597640      14.593934      14.849999      12.659970      11.626191      -26.486330      -37.734814      -75.338501      -83.743744      -83.437973      -73.780022      -71.772690      -83.089638      -82.689766      -69.336510      7.776420      11.523618      11.265172      -9.527224      23.605896      12.796792      12.119388      18.698637      -66.722023      -82.238670      -81.744873      -64.158821      -61.758453      -81.219925      -80.674881      -59.546589      24.566566      24.977165      13.420788      13.939990      14.449698      14.554014      14.562310      14.441540      14.480926      14.449686      14.571424      14.580743      14.452226      14.446926      14.342416      14.344738      14.340830      14.442082      14.437695      14.339886      14.302401      14.337605      14.327360      14.298105      14.291040      14.294285      14.317306      14.307544      14.397415      14.413876      14.579729      14.556697      14.602357      14.430298      14.446587      14.624499      14.863696      14.836008      15.122835      15.155730      15.492287      15.865585      15.823186      15.454493      15.415105      15.778817      15.732490      15.374158      15.053435      15.088720      14.807470      14.778153      14.748137      14.717517      14.979627      15.017047      15.331687      15.684220      15.634036      15.287744      15.242392      15.581968      15.528062      15.195718      14.902077      14.941265      14.686403      14.654925      14.462678      14.486217      14.348913      14.333483      14.273830      14.286096      14.285874      14.281190      14.289357      14.286715      14.288478      14.298186      14.381019      14.533359      14.509824      14.364806      14.537457      14.743738      14.725706      14.523412      14.388846      14.328005      14.333472      14.398645      14.408184      14.338932      14.344342      14.417428      14.563935      14.550973      14.760973      14.777396      15.049603      15.030026      15.349580      15.371995      15.736379      16.135262      16.108025      15.711420      15.684925      16.079027      16.048216      15.656860      15.300823      15.325862      15.009390      14.987689      14.964930      14.941124      15.246748      15.274452      15.627196      16.015541      15.980970      15.595919      15.563008      15.944469      15.906013      15.528463      15.187367      15.217714      14.916295      14.890474      14.646081      14.462658      14.478437      14.667041      14.687325      14.706892      14.508865      14.493857      14.368630      14.378825      14.322577      14.317239      14.312048      14.358315      14.347950      14.307078      14.339506      14.433752      14.430260      14.339614      14.340130      14.340992      14.424552      14.427196      14.535950      14.532102      14.544133      14.518277      14.492157      14.540820      14.546830      14.468152      14.344124      14.641754      21.733114      23.317823      -57.501820      -80.118713      -79.557770      -55.575630      -53.703159      -78.995697      -78.433632      -51.808392      18.478434      14.980740      14.848381      20.075684      15.681716      15.083295      15.054491      17.004843      -49.805447      -77.870430      -77.302856      -47.597542      -45.074333      -76.725777      -76.132256      -42.109085      13.514545      14.517881      15.078624      15.049930      14.623066      14.523898      14.525153      14.607903      14.568194      14.589587      14.526855      14.529123      14.422305      14.420426      14.343545      14.342147      14.345143      14.418884      14.417649      14.346898      14.348766      14.416683      14.415941      14.350703      14.352675      14.354667      14.414999      14.415384      14.521788      14.521388      14.656135      14.651396      14.644547      14.522308      14.522985      14.635204      15.004918      14.949781      11.984279      12.670470      -38.557770      -75.513763      -74.860313      -34.261814      -29.036703      -74.160660      -73.403114      -22.706881      11.087338      14.828405      14.889561      11.456221      10.811931      14.715504      14.769595      10.876508      -15.284218      -72.579224      -71.691788      -7.290960      0.421341      -70.757462      -69.801064      7.176648      11.015925      10.869009      14.667651      14.626705      14.660839      14.520240      14.520485      14.661152      14.659117      14.660675      14.520755      14.521056      14.414746      14.414600      14.358598      14.356647      14.360516      14.414556      14.414599      14.362395      14.382277      14.478310      14.472036      14.378204      14.369449      14.373927      14.465383      14.458345      14.619983      14.629432      14.858988      14.847352      14.869886      14.638318      14.646650      14.880066      15.170085      15.158288      15.494964      15.508153      15.886221      16.296999      16.281631      15.871848      15.856340      16.265013      16.247074      15.839640      15.465512      15.480764      15.145620      15.132051      15.117547      15.102076      15.431680      15.449166      15.821695      16.227751      16.206974      15.802449      15.781849      16.184675      16.160791      15.759840      15.393131      15.413015      15.085612      15.068128      14.793004      14.807795      14.588129      14.576325      14.426346      14.349664      14.354858      14.434911      14.443105      14.359899      14.364769      14.450920      14.609956      14.834955      14.821774      14.599338      23.111135      23.486828      23.463190      23.085854      22.686983      22.268221      22.296421      22.713840      22.738567      22.322376      22.346163      22.761227      23.155779      23.134430      23.508547      23.528421      23.546541      23.175261      23.192968      23.563007      23.577927      23.591406      23.223509      23.209013      22.817749      22.833153      22.421734      22.405533      22.387623      22.800707      22.781906      22.367872      21.934908      21.485064      21.506285      21.955462      21.974115      21.990999      21.543011      21.525555      21.062225      21.080132      20.604982      20.586760      20.566687      21.042477      21.020744      20.544621      20.520412      20.493910      20.970751      20.996883      21.461756      21.912325      21.887594      21.436228      21.408358      21.860609      21.831291      21.378036      20.911110      20.433418      20.464960      20.942204      19.488651      19.979481      19.947824      19.457188      18.964485      18.472870      18.503160      18.995483      19.024015      18.531099      18.556826      19.050236      19.544094      19.517567      20.008543      20.035172      20.059519      19.568386      19.590591      20.081739      20.101980      20.120386      19.629309      19.610853      19.116463      19.134846      18.640251      18.622065      18.602179      19.096321      19.074289      18.580475      18.090378      17.607704      17.628334      18.111612      18.131111      18.148985      17.664757      17.647316      17.174726      17.191610      16.734022      16.717823      16.700270      17.156387      17.136505      16.681278      16.660769      16.638662      17.091730      17.114981      17.585325      18.067291      18.042229      17.561090      17.534889      18.015074      17.985699      17.506615      17.039654      16.589340      16.614880      17.066650      17.241411      17.707186      17.655514      17.192680      16.743742      16.313114      16.355227      16.789272      16.832222      16.395065      16.432680      16.872650      17.330273      17.801041      17.755661      17.287249      17.408247      17.882975      17.843437      17.370573      16.910625      16.468115      16.501431      16.946226      16.979534      16.532692      16.561968      17.010647      17.476158      17.953976      17.919777      17.443405      19.876104      19.913418      19.423019      19.385986      18.894480      18.930870      18.440083      18.404657      18.325310      18.366447      18.855164      18.812767      19.302715      19.345934      19.835733      19.792170      19.695028      19.745295      19.256197      19.206266      18.718153      18.767145      18.281101      18.233685      18.128719      18.182930      18.665667      18.609570      19.095909      19.152849      19.641342      19.584282      21.094288      21.566187      21.524786      21.044109      20.558561      20.072104      20.128622      20.613300      20.664948      20.181877      20.231800      20.713486      21.187815      21.650131      21.608402      21.142210      21.271656      21.729097      21.690536      21.230997      20.758936      20.278402      20.321753      20.801346      20.840786      20.361956      20.399130      20.877342      21.345179      21.799591      21.765503      21.309725      23.409979      23.437582      23.058594      23.029444      22.626818      22.657970      22.237732      22.204939      22.132616      22.169876      22.593580      22.558338      22.966457      22.998606      23.380394      23.348867      23.280201      23.315460      22.933624      22.901106      22.482082      22.521168      22.093285      22.052052      21.964613      22.009108      22.440935      22.397182      22.844355      22.870487      23.243015      23.203522      23.160574      22.827202      22.292217      22.349163      21.918612      21.870760      21.819706      20.808872      20.877161      21.432467      21.453630      21.486206      20.991623      20.936466      20.440119      20.500788      20.012486      19.950073      19.885340      20.376835      20.311367      19.819021      19.751970      19.684221      20.244041      18.614740      19.119841      18.541307      18.007727      17.571869      17.650663      18.102961      18.189915      17.728304      17.803570      18.270880      18.762478      18.688747      19.188992      19.258106      19.327057      18.834721      18.904615      19.394878      19.460718      19.523987      19.035473      18.971642      18.486128      18.549757      18.070953      18.009550      17.944471      18.418566      18.346912      17.875755      17.415688      16.967960      17.028625      17.480637      17.542274      17.600561      17.140993      17.086311      16.644756      16.695580      16.268702      16.221966      16.172890      16.591255      16.535078      16.121475      16.067732      16.011671      16.414804      16.476248      16.904381      17.347525      17.276295      16.837992      16.768965      17.202171      17.125267      16.697577      16.284376      15.892660      15.953309      16.350817      15.691657      15.324349      15.402992      15.738832      15.832369      15.480057      15.554735      15.916197      16.336552      16.725014      16.275640      16.475208      16.873749      16.774248      16.402611      15.995167      15.626975      15.696882      16.071085      16.144489      15.764465      15.829720      16.215580      16.624289      17.045517      16.962376      16.549803      17.844557      17.898785      17.494354      17.423243      17.357262      19.252699      18.758060      18.763523      19.258091      19.751766      20.241301      20.236145      19.746479      19.740553      20.230358      20.223871      19.733925      19.239939      19.246670      18.751961      18.745167      18.253048      18.259863      17.774040      17.767254      17.291763      16.830971      16.837534      17.298470      17.304525      16.843472      16.848829      17.309980      17.785656      17.780157      18.265991      18.271492      18.276419      18.280825      17.795012      17.790592      17.314882      16.853657      16.857996      17.319283      17.323221      16.861885      16.865364      17.326735      17.802477      17.798960      18.284752      18.288246      18.780090      19.274368      19.270994      18.776646      18.768408      18.772766      19.267187      19.262901      19.756477      19.760664      20.249952      20.245886      20.253551      19.764378      19.767662      20.256729      20.738483      21.209990      21.207067      20.735428      20.728031      20.731958      21.203745      21.199974      21.658945      21.662542      22.105793      22.102383      22.108789      21.665707      21.668484      22.111414      22.536470      22.534004      22.939331      22.941631      23.325205      23.685846      23.683876      23.323069      23.320620      23.681614      23.679024      23.317816      22.933681      22.527969      22.531185      22.936693      22.926353      22.520164      22.524313      22.930250      23.314619      23.676065      23.672699      23.310984      23.306858      23.668875      23.664541      23.302185      22.916941      22.921936      22.515471      22.510164      22.083574      21.639202      21.645060      22.089167      22.094124      22.098509      21.654869      21.650261      21.190897      21.195711      20.723597      20.718601      20.712980      21.185474      21.179377      20.706673      20.699606      21.172535      21.164867      20.691704      20.673042      20.682878      21.156294      21.146719      21.607693      21.616949      22.062262      22.053371      22.070200      21.625227      21.632618      22.077276      22.504185      22.497454      22.904945      22.911301      23.296907      23.659641      23.654112      23.290955      23.284258      23.647888      23.640896      23.276733      22.889782      22.481419      22.489895      22.897800      22.870750      22.461330      22.471931      22.880796      23.268299      23.633055      23.624279      23.258862      23.248322      23.614477      23.603554      23.236574      22.847042      22.859535      22.449511      22.436350      22.006248      21.558790      21.573023      22.019987      22.032343      22.043434      21.597357      21.585838      21.124166      21.136045      20.662094      20.649931      20.636438      21.110971      21.096334      20.621498      20.137094      20.152235      19.661333      19.646095      19.151596      18.656858      18.671995      19.166832      19.180668      18.685770      18.698286      19.193214      19.687643      20.178305      20.165934      19.675146      20.189457      19.698933      19.709114      20.199499      20.208523      20.216619      19.726528      19.718285      19.224096      19.232439      18.737610      18.729219      18.719925      19.214836      19.204571      18.709641      18.217596      17.732122      17.742237      18.227829      18.237101      18.245481      17.759733      17.751417      17.276163      17.284348      16.823727      16.815748      16.806974      17.267147      17.257233      16.797348      17.234419      16.775259      16.786798      17.246347      17.720997      18.206316      18.193909      17.708782      17.695396      18.180283      18.165340      17.680752      17.207130      17.221373      16.762665      16.748943      16.311184      16.324255      15.911790      15.899515      15.520380      15.181048      15.191215      15.531693      15.542137      15.200622      15.209311      15.551762      15.933501      16.347309      16.336277      15.923100      16.357418      15.943048      15.951800      16.366661      16.375101      16.382792      15.967115      15.959806      15.576208      15.583029      15.237688      15.231477      15.224699      15.568751      15.560616      15.217322      14.921137      14.680586      14.685985      14.927605      14.933559      14.939030      14.695560      14.690969      14.512259      14.515840      14.407460      14.404994      14.402348      14.508390      14.504211      14.399503      14.494895      14.393227      14.396462      14.499717      14.674756      14.914131      14.906554      14.668472      14.661709      14.898372      14.889552      14.654442      14.484205      14.489730      14.389789      14.386140      14.364222      14.414718      14.414897      14.365986      14.367684      14.369318      14.415408      14.415131      14.519657      14.519516      14.655799      14.657322      14.658751      14.519825      14.520020      14.659974      14.592671      14.565122      11.459483      11.221431      12.682389      -68.847702      -67.918152      16.945839      20.123472      -67.027405      -66.185104      22.418787      11.960879      11.710504      14.543380      14.526663      14.514174      14.505160      12.428682      12.201911      24.033171      -65.396408      -64.663025      25.141027      25.883196      -63.984325      -63.358944      26.356554      12.831660      12.638988      14.498991      14.495142      14.649897      14.651254      14.519171      14.519088      14.416711      14.375088      14.373765      14.416370      14.416046      14.372369      14.370883      14.415720      14.519397      14.654257      14.652729      14.519284      14.518969      14.646544      14.645679      14.518973      14.418093      14.379624      14.378601      14.417749      14.417400      14.377503      14.376336      14.417057      14.519026      14.518982      14.647529      14.648651      14.493093      14.492476      13.164952      13.006613      26.634233      -62.784523      -62.257793      26.777639      26.819977      -61.776115      -61.336193      26.796169      13.435063      13.307301      14.492953      14.494239      14.496106      14.498402      13.651212      13.549213      26.723253      -60.935333      -60.570469      26.621420      26.499668      -60.239147      -59.938862      26.366346      13.822616      13.741958      14.500921      14.503609      14.643322      14.519208      14.519121      14.643762      14.644932      14.644308      14.519060      14.519002      14.418433      14.418777      14.381480      14.380581      14.382308      14.419104      14.419427      14.383080      14.421541      14.420252      14.534012      14.535796      14.720780      14.968752      14.966164      14.718559      14.716108      14.963299      14.960135      14.713408      14.529899      14.417308      14.418846      14.532052      14.519146      14.409753      14.411871      14.522187      14.524985      14.413834      14.415642      14.527550      14.956657      14.710449      14.707207      14.952835      14.948640      14.703657      14.699784      14.944049      15.589258      15.243374      15.248564      15.594934      15.600098      15.253295      15.257596      15.604783      16.407099      15.990321      15.985338      16.401896      16.396139      15.979836      15.973778      16.389788      15.998893      16.416025      16.411795      15.994825      15.609028      15.261501      15.265043      15.612868      15.616331      15.268244      15.271128      15.619445      16.005838      16.002552      16.419827      16.423229      16.426273      16.428989      16.011412      16.008781      15.622241      15.273724      15.276053      15.624745      15.626978      15.278133      15.279983      15.628958      16.015825      16.433535      16.431402      16.013752      16.435411      16.017653      16.019255      16.437054      16.438482      16.439718      16.021870      16.020655      15.633596      15.634774      15.285459      15.284341      15.283067      15.632246      15.630707      15.281621      14.978231      14.728982      14.730139      14.979552      14.980721      14.981749      14.732077      14.731169      14.544270      14.545024      14.428386      14.427814      14.427164      14.543414      14.542459      14.426441      14.540210      14.424768      14.425645      14.541394      14.727685      14.976743      14.975068      14.726232      14.724606      14.973188      14.971087      14.722792      14.537420      14.538889      14.423799      14.422724      14.383801      14.419749      14.420052      14.384462      14.385063      14.385614      14.420603      14.420332      14.519536      14.519659      14.642280      14.642446      14.642685      14.519428      14.519320      14.642979      14.506384      14.509114      13.958053      13.894447      26.231415      -59.667004      -59.421715      26.096493      25.964294      -59.201168      -59.003387      25.838240      14.063754      14.014178      14.511763      14.514335      14.516808      14.519097      14.146038      14.107594      25.721642      -58.826534      -58.669357      25.613955      25.515322      -58.530766      -58.409672      25.426100      14.208057      14.179397      14.521146      14.522939      14.641926      14.642018      14.520056      14.520143      14.421554      14.387405      14.387031      14.421359      14.421128      14.386602      14.386127      14.420871      14.519799      14.642176      14.642098      14.519938      14.520263      14.641647      14.641580      14.520277      14.422009      14.388377      14.388206      14.421934      14.421837      14.387989      14.387724      14.421712      14.520201      14.520239      14.641732      14.641828      14.524489      14.525825      14.253046      14.232458      25.346659      -58.304977      -58.215599      25.277325      25.218456      -58.140507      -58.078842      25.170582      14.284430      14.270254      14.526973      14.527953      14.528767      14.529400      14.304086      14.295691      25.132807      -58.030075      -57.993835      25.104681      25.085995      -57.969841      -57.957897      25.076664      14.312425      14.309652      14.529835      14.530056      14.641475      14.520298      14.520296      14.641481      14.641530      14.641498      14.520291      14.520287      14.422065      14.422104      14.388607      14.388511      14.388670      14.422130      14.422142      14.388700      14.430459      14.430407      14.547739      14.547810      14.735459      14.985596      14.985496      14.735373      14.735196      14.985294      14.984989      14.734929      14.547377      14.430142      14.430302      14.547595      14.545678      14.428880      14.429297      14.546236      14.546702      14.429645      14.429924      14.547081      14.984576      14.734568      14.734106      14.984051      14.983409      14.733541      14.732865      14.982643      15.635796      15.286429      15.287260      15.636669      15.637403      15.287958      15.288529      15.638003      16.443060      16.025187      16.024570      16.442442      16.441685      16.023819      16.022921      16.440781      16.026030      16.443909      16.443548      16.025671      15.638476      15.288979      15.289311      15.638826      15.639058      15.289532      15.289640      15.639174      16.026386      16.026268      16.444147      16.444265      16.886612      17.347979      17.347866      16.886496      16.885906      16.886261      17.347637      17.347292      17.822886      17.823221      18.308691      18.308365      18.308907      17.823441      17.823549      18.309011      18.800417      18.800314      19.294029      19.294128      19.786739      20.275026      20.274937      19.786646      19.786453      20.274754      20.274473      19.786160      19.293522      19.293827      18.800106      18.799788      18.799355      18.798800      19.292564      19.293102      19.785759      20.274094      20.273602      19.785242      19.784601      20.272991      20.272251      19.783823      19.291088      19.291897 